 vasp.6.4.2 20Jul23 (build Apr 16 2026 16:01:09) complex                        
  
 executed on             LinuxIFC date 2026.07.08  21:35:09
 running    8 mpi-ranks, on    1 nodes
 distrk:  each k-point on    8 cores,    1 groups
 distr:  one band on NCORE=   4 cores,    2 groups


--------------------------------------------------------------------------------------------------------


 INCAR:
   NSW = 100000
   PREC = Normal
   IVDW = 10
   RANDOM_SEED = 706023541                0                0
   NPAR = 2
   LWAVE = .FALSE.
   LCHARG = .FALSE.
   ISMEAR = -1
   SIGMA = 0.0258
   ISYM = 0
   ENCUT = 300
   EDIFF = 1e-6
   IBRION = 0
   POTIM = 1
   MDALGO = 3
   ISIF = 2
   LANGEVIN_GAMMA = 1.0
   TEBEG = 300
   LREAL = .FALSE.
   ML_LMLFF = .TRUE.
   ML_MODE = run

 POTCAR:    PAW_PBE Si 05Jan2001                  
 POTCAR:    PAW_PBE Si 05Jan2001                  
   VRHFIN =Si: s2p2                                                                                 
   LEXCH  = PE                                                                                      
   EATOM  =   103.0669 eV,    7.5752 Ry                                                             
                                                                                                    
   TITEL  = PAW_PBE Si 05Jan2001                                                                    
   LULTRA =        F    use ultrasoft PP ?                                                          
   IUNSCR =        1    unscreen: 0-lin 1-nonlin 2-no                                               
   RPACOR =    1.500    partial core radius                                                         
   POMASS =   28.085; ZVAL   =    4.000    mass and valenz                                          
   RCORE  =    1.900    outmost cutoff radius                                                       
   RWIGS  =    2.480; RWIGS  =    1.312    wigner-seitz radius (au A)                               
   ENMAX  =  245.345; ENMIN  =  184.009 eV                                                          
   ICORE  =        2    local potential                                                             
   LCOR   =        T    correct aug charges                                                         
   LPAW   =        T    paw PP                                                                      
   EAUG   =  322.069                                                                                
   DEXC   =    0.000                                                                                
   RMAX   =    1.950    core radius for proj-oper                                                   
   RAUG   =    1.300    factor for augmentation sphere                                              
   RDEP   =    1.993    radius for radial grids                                                     
   RDEPT  =    1.837    core radius for aug-charge                                                  
                                                                                                    
   Atomic configuration                                                                             
    6 entries                                                                                       
     n  l   j            E        occ.                                                              
     1  0  0.50     -1785.8828   2.0000                                                             
     2  0  0.50      -139.4969   2.0000                                                             
     2  1  1.50       -95.5546   6.0000                                                             
     3  0  0.50       -10.8127   2.0000                                                             
     3  1  0.50        -4.0811   2.0000                                                             
     3  2  1.50        -4.0817   0.0000                                                             
   Description                                                                                      
     l       E           TYP  RCUT    TYP  RCUT                                                     
     0    -10.8127223     23  1.900                                                                 
     0     -7.6451159     23  1.900                                                                 
     1     -4.0811372     23  1.900                                                                 
     1      2.4879257     23  1.900                                                                 
     2     -4.0817478      7  1.900                                                                 
  local pseudopotential read in
  partial core-charges read in
  partial kinetic energy density read in
  atomic valenz-charges read in
  non local Contribution for L=           0  read in
    real space projection operators read in
  non local Contribution for L=           0  read in
    real space projection operators read in
  non local Contribution for L=           1  read in
    real space projection operators read in
  non local Contribution for L=           1  read in
    real space projection operators read in
    PAW grid and wavefunctions read in
 
   number of l-projection  operators is LMAX  =           4
   number of lm-projection operators is LMMAX =           8
 
  PAW_PBE Si 05Jan2001                  :
 energy of atom  1       EATOM= -103.0669
 kinetic energy error for atom=-1285.4608 (will be added to EATOM!!)
 
 
 POSCAR: fcc carbon
  positions in direct lattice
  No initial velocities read in

  MD-specific parameters
                MDALGO =   3
        LANGEVIN_GAMMA =     1.000
               LCNOISE =               F
                 CNEXP =     9.000   14.000
 exchange correlation table for  LEXCH =        8
   RHO(1)=    0.500       N(1)  =     2000
   RHO(2)=  100.500       N(2)  =     4000
 


--------------------------------------------------------------------------------------------------------


 ion  position               nearest neighbor table
   1  0.321  0.312  0.311-  16 2.31  12 2.35  14 2.36  15 2.40
   2  0.310  0.315  0.829-  15 2.23  16 2.32  11 2.33  13 2.36
   3  0.319  0.811  0.313-  14 2.27  10 2.34  13 2.43  16 2.46
   4  0.296  0.834  0.798-  14 2.30   9 2.33  15 2.40  13 2.46
   5  0.823  0.308  0.309-  11 2.27  12 2.30  16 2.44  10 2.46
   6  0.796  0.331  0.802-  15 2.30   9 2.32  11 2.38  12 2.46
   7  0.800  0.828  0.303-  14 2.27  10 2.33  12 2.38   9 2.42
   8  0.832  0.810  0.797-  10 2.25   9 2.28  13 2.35  11 2.44
   9  0.924  0.962  0.916-   8 2.28   6 2.32   4 2.33   7 2.42
  10  0.946  0.918  0.438-   8 2.25   7 2.33   3 2.34   5 2.46
  11  0.938  0.424  0.946-   5 2.27   2 2.33   6 2.38   8 2.44
  12  0.946  0.451  0.409-   5 2.30   1 2.35   7 2.38   6 2.46
  13  0.456  0.941  0.925-   8 2.35   2 2.36   3 2.43   4 2.46
  14  0.436  0.938  0.430-   3 2.27   7 2.27   4 2.30   1 2.36
  15  0.428  0.453  0.927-   2 2.23   6 2.30   4 2.40   1 2.40
  16  0.435  0.421  0.458-   1 2.31   2 2.32   5 2.44   3 2.46
 

IMPORTANT INFORMATION: All symmetrisations will be switched off!
NOSYMM: (Re-)initialisation of all symmetry stuff for point group C_1.


----------------------------------------------------------------------------------------

                                     Primitive cell                                     

  volume of cell :     319.4162

  direct lattice vectors                    reciprocal lattice vectors
     5.362444775  5.540010018  0.070050826     0.092315612  0.092315612 -0.092315612
    -0.102691642  5.495517549  5.392825907    -0.093063012  0.088903471  0.093063012
     5.365664814  0.000000000  5.365664814     0.092328882 -0.090558718  0.094041313

  length of vectors
     7.710540324  7.700248695  7.588195952     0.159895330  0.158824669  0.159903948

  position of ions in fractional coordinates (direct lattice)
     0.321201041  0.312285673  0.310745195
     0.309966870  0.314634863  0.828890250
     0.319036922  0.811163459  0.312691339
     0.296495680  0.834336180  0.798419963
     0.823330933  0.307805547  0.308846913
     0.796123400  0.330543646  0.801890718
     0.799635117  0.828218148  0.302640715
     0.832444904  0.810329251  0.797354367
     0.924182957  0.962247467  0.916073594
     0.945779975  0.917877799  0.438415548
     0.938083513  0.423976362  0.945955456
     0.946126091  0.450641972  0.408711677
     0.456154252  0.940915846  0.924661343
     0.436459992  0.938267255  0.430392610
     0.427950358  0.453016110  0.927406377
     0.434687907  0.420699917  0.458025578

  ion indices of the primitive-cell ions
   primitive index   ion index
                 1           1
                 2           2
                 3           3
                 4           4
                 5           5
                 6           6
                 7           7
                 8           8
                 9           9
                10          10
                11          11
                12          12
                13          13
                14          14
                15          15
                16          16

----------------------------------------------------------------------------------------

 
 
 KPOINTS: Monkhorst Pack                          

Automatic generation of k-mesh.
 Grid dimensions read from file:
 generate k-points for:    1    1    1

 Generating k-lattice:

  Cartesian coordinates                     Fractional coordinates (reciprocal lattice)
     0.092315612  0.092315612 -0.092315612     1.000000000 -0.000000000 -0.000000000
    -0.093063012  0.088903471  0.093063012     0.000000000  1.000000000  0.000000000
     0.092328882 -0.090558718  0.094041313     0.000000000 -0.000000000  1.000000000

  Length of vectors
     0.159895330  0.158824669  0.159903948

  Shift w.r.t. Gamma in fractional coordinates (k-lattice)
     0.000000000  0.000000000  0.000000000

 
 Subroutine IBZKPT returns following result:
 ===========================================
 
 Found      1 irreducible k-points:
 
 Following reciprocal coordinates:
            Coordinates               Weight
  0.000000  0.000000  0.000000      1.000000
 
 Following cartesian coordinates:
            Coordinates               Weight
  0.000000  0.000000  0.000000      1.000000
 


--------------------------------------------------------------------------------------------------------




 Dimension of arrays:
   k-points           NKPTS =      1   k-points in BZ     NKDIM =      1   number of bands    NBANDS=     42
   number of dos      NEDOS =    301   number of ions     NIONS =     16
   non local maximal  LDIM  =      4   non local SUM 2l+1 LMDIM =      8
   total plane-waves  NPLWV =      8
   max r-space proj   IRMAX =      1   max aug-charges    IRDMAX=    200
   dimension x,y,z NGX =     2 NGY =    2 NGZ =    2
   dimension x,y,z NGXF=     2 NGYF=    2 NGZF=    2
   support grid    NGXF=     2 NGYF=    2 NGZF=    2
   ions per type =              16
   NGX,Y,Z   is equivalent  to a cutoff of   0.43,  0.43,  0.44 a.u.
   NGXF,Y,Z  is equivalent  to a cutoff of   0.43,  0.43,  0.44 a.u.

 SYSTEM =  unknown system                          
 POSCAR =  fcc carbon                              

 Startparameter for this run:
   NWRITE =      2    write-flag & timer
   PREC   = normal    normal or accurate (medium, high low for compatibility)
   ISTART =      0    job   : 0-new  1-cont  2-samecut
   ICHARG =      2    charge: 1-file 2-atom 10-const
   ISPIN  =      1    spin polarized calculation?
   LNONCOLLINEAR =      F non collinear calculations
   LSORBIT =      F    spin-orbit coupling
   INIWAV =      1    electr: 0-lowe 1-rand  2-diag
   LASPH  =      F    aspherical Exc in radial PAW
 Electronic Relaxation 1
   ENCUT  =    1.0 eV   0.07 Ry    0.27 a.u.   0.63  0.63  0.62*2*pi/ulx,y,z
   ENINI  =    1.0     initial cutoff
   ENAUG  =  322.1 eV  augmentation charge cutoff
   NELM   =     60;   NELMIN=  2; NELMDL= -5     # of ELM steps 
   EDIFF  = 0.1E-05   stopping-criterion for ELM
   LREAL  =      F    real-space projection
   NLSPLINE    = F    spline interpolate recip. space projectors
   LCOMPAT=      F    compatible to vasp.4.4
   GGA_COMPAT  = T    GGA compatible to vasp.4.4-vasp.4.6
   LMAXPAW     = -100 max onsite density
   LMAXMIX     =    2 max onsite mixed and CHGCAR
   VOSKOWN=      0    Vosko Wilk Nusair interpolation
   ROPT   =    0.00000
 Ionic relaxation
   EDIFFG = 0.1E-04   stopping-criterion for IOM
   NSW    = 100000    number of steps for IOM
   NBLOCK =      1;   KBLOCK = 100000    inner block; outer block 
   IBRION =      0    ionic relax: 0-MD 1-quasi-New 2-CG
   NFREE  =      0    steps in history (QN), initial steepest desc. (CG)
   ISIF   =      2    stress and relaxation
   IWAVPR =     11    prediction:  0-non 1-charg 2-wave 3-comb
   ISYM   =      0    0-nonsym 1-usesym 2-fastsym
   LCORR  =      T    Harris-Foulkes like correction to forces

   POTIM  = 1.0000    time-step for ionic-motion
   TEIN   =  300.0    initial temperature
   TEBEG  =  300.0;   TEEND  = 300.0 temperature during run
   SMASS  =  -3.00    Nose mass-parameter (am)
   estimated Nose-frequenzy (Omega)   =  0.10E-29 period in steps = 0.63E+46 mass=  -0.136E-26a.u.
   SCALEE = 1.0000    scale energy and forces
   NPACO  =    256;   APACO  = 10.0  distance and # of slots for P.C.
   PSTRESS=    0.0 pullay stress

  Mass of Ions in am
   POMASS =  28.09
  Ionic Valenz
   ZVAL   =   4.00
  Atomic Wigner-Seitz radii
   RWIGS  =  -1.00
  virtual crystal weights 
   VCA    =   1.00
   NELECT =      64.0000    total number of electrons
   NUPDOWN=      -1.0000    fix difference up-down

 DOS related values:
   EMIN   =  10.00;   EMAX   =-10.00  energy-range for DOS
   EFERMI =   0.00;   METHOD = LEGACY      
   ISMEAR =    -1;   SIGMA  =   0.03  broadening in eV -4-tet -1-fermi 0-gaus

 Electronic relaxation 2 (details)
   IALGO  =     38    algorithm
   LDIAG  =      T    sub-space diagonalisation (order eigenvalues)
   LSUBROT=      F    optimize rotation matrix (better conditioning)
   TURBO    =      0    0=normal 1=particle mesh
   IRESTART =      0    0=no restart 2=restart with 2 vectors
   NREBOOT  =      0    no. of reboots
   NMIN     =      0    reboot dimension
   EREF     =   0.00    reference energy to select bands
   IMIX   =      4    mixing-type and parameters
     AMIX     =   0.40;   BMIX     =  1.00
     AMIX_MAG =   1.60;   BMIX_MAG =  1.00
     AMIN     =   0.10
     WC   =   100.;   INIMIX=   1;  MIXPRE=   1;  MAXMIX= -45

 Intra band minimization:
   WEIMIN = 0.0010     energy-eigenvalue tresh-hold
   EBREAK =  0.60E-08  absolut break condition
   DEPER  =   0.30     relativ break condition  

   TIME   =   0.40     timestep for ELM

  volume/ion in A,a.u.               =      19.96       134.72
  Fermi-wavevector in a.u.,A,eV,Ry     =   0.957964  1.810289 12.485997  0.917695
  Thomas-Fermi vector in A             =   2.087029
 
 Write flags
   LWAVE        =      F    write WAVECAR
   LDOWNSAMPLE  =      F    k-point downsampling of WAVECAR
   LCHARG       =      F    write CHGCAR
   LVTOT        =      F    write LOCPOT, total local potential
   LVHAR        =      F    write LOCPOT, Hartree potential only
   LELF         =      F    write electronic localiz. function (ELF)
   LORBIT       =      0    0 simple, 1 ext, 2 COOP (PROOUT), +10 PAW based schemes


 Dipole corrections
   LMONO  =      F    monopole corrections only (constant potential shift)
   LDIPOL =      F    correct potential (dipole corrections)
   IDIPOL =      0    1-x, 2-y, 3-z, 4-all directions 
   EPSILON=  1.0000000 bulk dielectric constant

 Exchange correlation treatment:
   GGA     =    --    GGA type
   LEXCH   =     8    internal setting for exchange type
   LIBXC   =     F    Libxc                    
   VOSKOWN =     0    Vosko Wilk Nusair interpolation
   LHFCALC =     F    Hartree Fock is set to
   LHFONE  =     F    Hartree Fock one center treatment
   AEXX    =    0.0000 exact exchange contribution

 Linear response parameters
   LEPSILON=     F    determine dielectric tensor
   LRPA    =     F    only Hartree local field effects (RPA)
   LNABLA  =     F    use nabla operator in PAW spheres
   LVEL    =     F    velocity operator in full k-point grid
   CSHIFT  =0.1000    complex shift for real part using Kramers Kronig
   OMEGAMAX=  -1.0    maximum frequency
   DEG_THRESHOLD= 0.2000000E-02 threshold for treating states as degnerate
   RTIME   =   -0.100 relaxation time in fs
  (WPLASMAI=    0.000 imaginary part of plasma frequency in eV, 0.658/RTIME)
   DFIELD  = 0.0000000 0.0000000 0.0000000 field for delta impulse in time
 
  Optional k-point grid parameters
   LKPOINTS_OPT  =     F    use optional k-point grid
   KPOINTS_OPT_MODE=     1    mode for optional k-point grid
 
 Orbital magnetization related:
   ORBITALMAG=     F  switch on orbital magnetization
   LCHIMAG   =     F  perturbation theory with respect to B field
   DQ        =  0.001000  dq finite difference perturbation B field
   LLRAUG    =     F  two centre corrections for induced B field
   LBONE     =     F  B-component reconstruction in AE one-centre
   LVGVCALC  =     T  calculate vGv susceptibility
   LVGVAPPL  =     F  apply vGv susceptibility instead of pGv for G=0

 Random number generation:
   RANDOM_GENERATOR = DEFAULT
   PCG_SEED         = not used


--------------------------------------------------------------------------------------------------------


 molecular dynamics for ions
   using a microcanonical ensemble
 charge density and potential will be updated during run
 non-spin polarized calculation
 Variant of blocked Davidson
 Davidson routine will perform the subspace rotation
 perform sub-space diagonalisation
    after iterative eigenvector-optimisation
 modified Broyden-mixing scheme, WC =      100.0
 initial mixing is a Kerker type mixing with AMIX =  0.4000 and BMIX =      1.0000
 Hartree-type preconditioning will be used
 using additional bands           10
 reciprocal scheme for non local part
 use partial core corrections
 calculate Harris-corrections to forces 
   (improved forces if not selfconsistent)
 use gradient corrections 
 use of overlap-Matrix (Vanderbilt PP)
 Fermi-smearing in eV        SIGMA  =   0.03


--------------------------------------------------------------------------------------------------------


  energy-cutoff  :        1.00
  volume of cell :      319.42
      direct lattice vectors                 reciprocal lattice vectors
     5.362444775  5.540010018  0.070050826     0.092315612  0.092315612 -0.092315612
    -0.102691642  5.495517549  5.392825907    -0.093063012  0.088903471  0.093063012
     5.365664814  0.000000000  5.365664814     0.092328882 -0.090558718  0.094041313

  length of vectors
     7.710540324  7.700248695  7.588195952     0.159895330  0.158824669  0.159903948


 
 k-points in units of 2pi/SCALE and weight: Monkhorst Pack                          
   0.00000000  0.00000000  0.00000000       1.000
 
 k-points in reciprocal lattice and weights: Monkhorst Pack                          
   0.00000000  0.00000000  0.00000000       1.000
 
 position of ions in fractional coordinates (direct lattice) 
   0.32120104  0.31228567  0.31074519
   0.30996687  0.31463486  0.82889025
   0.31903692  0.81116346  0.31269134
   0.29649568  0.83433618  0.79841996
   0.82333093  0.30780555  0.30884691
   0.79612340  0.33054365  0.80189072
   0.79963512  0.82821815  0.30264071
   0.83244490  0.81032925  0.79735437
   0.92418296  0.96224747  0.91607359
   0.94577998  0.91787780  0.43841555
   0.93808351  0.42397636  0.94595546
   0.94612609  0.45064197  0.40871168
   0.45615425  0.94091585  0.92466134
   0.43645999  0.93826725  0.43039261
   0.42795036  0.45301611  0.92740638
   0.43468791  0.42069992  0.45802558
 
 position of ions in cartesian coordinates  (Angst):
   3.35770828  3.49562838  3.37395722
   6.07741710  3.44630098  6.16603172
   3.30531508  6.22523077  6.07460903
   5.78831626  6.22769816  8.80425344
   6.04062662  6.25281240  3.37478575
   8.53790050  6.22704002  6.14101025
   5.82681671  8.98147392  6.14632002
   8.65906206  9.06493173  8.70661430
   9.77240915 10.40803068 10.16931670
   7.32982539 10.28384409  7.36859872
  10.06256211  7.52696160  7.42782414
   7.22028161  7.71805889  4.68952048
   7.31090062  7.69791867 10.06757216
   4.55348288  7.57425689  7.39982883
   7.22449095  4.86040725  7.44916706
   4.74539926  4.72013914  4.75682339
 


--------------------------------------------------------------------------------------------------------


 k-point   1 :   0.0000 0.0000 0.0000  plane waves:       1

 maximum and minimum number of plane-waves per node :         1        0

 maximum number of plane-waves:         1
 maximum index in each direction: 
   IXMAX=    0   IYMAX=    0   IZMAX=    0
   IXMIN=    0   IYMIN=    0   IZMIN=    0



--------------------------------------- Ionic step        1  -------------------------------------------



  ML FORCE on cell =-STRESS in cart. coord. units (eV/cell)
  Direction    XX          YY          ZZ          XY          YZ          ZX
  --------------------------------------------------------------------------------------
  Total:      0.23464    -2.80022     3.27965     3.82293    -0.73750     3.10857
  in kB       1.17696   -14.04575    16.45058    19.17567    -3.69924    15.59245
  external pressure =        1.19 kB  Pullay stress =        0.00 kB

  kinetic pressure (ideal gas correction) =      1.95 kB
  total pressure  =      3.14 kB
  Total+kin.     2.334     -11.480      18.564      18.461      -3.363      15.618
  volume of cell :      319.42
      direct lattice vectors                 reciprocal lattice vectors
     5.362444775  5.540010018  0.070050826     0.092315612  0.092315612 -0.092315612
    -0.102691642  5.495517549  5.392825907    -0.093063012  0.088903471  0.093063012
     5.365664814  0.000000000  5.365664814     0.092328882 -0.090558718  0.094041313

  length of vectors
     7.710540324  7.700248695  7.588195952     0.159895330  0.158824669  0.159903948


  POSITION                                       TOTAL-FORCE (eV/Angst) (ML)
 -----------------------------------------------------------------------------------
      3.35771      3.49563      3.37396        -0.625537     -0.065852     -0.240409
      6.07742      3.44630      6.16603        -0.495945     -0.898728     -1.097104
      3.30532      6.22523      6.07461        -0.378832     -0.627664     -1.482866
      5.78832      6.22770      8.80425         1.226733      0.244247      0.334428
      6.04063      6.25281      3.37479         0.202491     -1.587989      0.187847
      8.53790      6.22704      6.14101        -0.138899      1.047018     -0.579419
      5.82682      8.98147      6.14632         0.381379      0.517803     -1.137731
      8.65906      9.06493      8.70661         0.328709     -1.574274      0.094843
      9.77241     10.40803     10.16932         0.838516     -0.078549      0.599473
      7.32983     10.28384      7.36860        -0.996235      1.372340      0.049244
     10.06256      7.52696      7.42782        -1.038513      0.605209     -0.050970
      7.22028      7.71806      4.68952         0.658762     -0.296509      0.946535
      7.31090      7.69792     10.06757        -0.157908     -0.986660      0.110269
      4.55348      7.57426      7.39983        -0.246907      0.206700      0.780427
      7.22449      4.86041      7.44917         0.625627      0.593258      1.424341
      4.74540      4.72014      4.75682        -0.183441      1.529651      0.061092
 -----------------------------------------------------------------------------------
    total drift:                                0.000000      0.000000      0.000000


--------------------------------------------------------------------------------------------------------



  ML FREE ENERGIE OF THE ION-ELECTRON SYSTEM (eV)
  ---------------------------------------------------
  free  energy ML TOTEN  =       -87.98535450 eV

  ML energy  without entropy=      -87.98535450  ML energy(sigma->0) =      -87.98535450

      MLFF:  cpu time      0.0005: real time      0.0005
           RANDOM_SEED =         706023541                0                0
           RANDOM_SEED =         706023541              192                0
   IONSTEP:  cpu time      0.0003: real time      0.0051

  ENERGY OF THE ELECTRON-ION-THERMOSTAT SYSTEM (eV)
  ---------------------------------------------------
% ion-electron   TOTEN  =       -87.985354  see above
  kinetic energy EKIN   =         0.627687
  kin. lattice  EKIN_LAT=         0.000000  (temperature  303.50 K)
  nose potential ES     =         0.000000
  nose kinetic   EPS    =         0.000000
  ---------------------------------------------------
  total energy   ETOTAL =       -87.357667 eV



--------------------------------------- Ionic step        2  -------------------------------------------



  ML FORCE on cell =-STRESS in cart. coord. units (eV/cell)
  Direction    XX          YY          ZZ          XY          YZ          ZX
  --------------------------------------------------------------------------------------
  Total:      0.21231    -2.80635     3.25297     3.75465    -0.74128     3.09791
  in kB       1.06491   -14.07655    16.31674    18.83317    -3.71823    15.53898
  external pressure =        1.10 kB  Pullay stress =        0.00 kB

  kinetic pressure (ideal gas correction) =      2.13 kB
  total pressure  =      3.24 kB
  Total+kin.     2.772     -12.225      19.159      18.713      -3.989      16.682
  volume of cell :      319.42
      direct lattice vectors                 reciprocal lattice vectors
     5.362444775  5.540010018  0.070050826     0.092315612  0.092315612 -0.092315612
    -0.102691642  5.495517549  5.392825907    -0.093063012  0.088903471  0.093063012
     5.365664814  0.000000000  5.365664814     0.092328882 -0.090558718  0.094041313

  length of vectors
     7.710540324  7.700248695  7.588195952     0.159895330  0.158824669  0.159903948


  POSITION                                       TOTAL-FORCE (eV/Angst) (ML)
 -----------------------------------------------------------------------------------
      3.35357      3.49312      3.37083        -0.520504      0.012350     -0.158421
      6.07810      3.44465      6.17088        -0.481031     -0.901642     -1.129048
      3.30331      6.22675      6.07435        -0.372049     -0.653780     -1.544661
      5.78602      6.23581      8.80187         1.238810      0.118855      0.388731
      6.04115      6.25220      3.37581         0.207908     -1.565590      0.175966
      8.54129      6.22433      6.13950        -0.184881      1.085194     -0.552698
      5.82718      8.97905      6.14068         0.325802      0.508799     -1.075207
      8.65761      9.06737      8.70406         0.292761     -1.557149      0.073224
      9.76988     10.40826     10.17176         0.906952     -0.088876      0.487805
      7.32663     10.28649      7.36002        -0.972423      1.321311      0.137271
     10.06095      7.52456      7.42634        -1.019290      0.614931      0.001469
      7.22233      7.71825      4.69214         0.652611     -0.341526      0.891767
      7.30910      7.69753     10.06571        -0.143504     -0.939519      0.116788
      4.55025      7.57070      7.39839        -0.230784      0.317273      0.745794
      7.22662      4.86216      7.44783         0.583200      0.603429      1.458036
      4.75127      4.72133      4.76107        -0.283578      1.465940     -0.016816
 -----------------------------------------------------------------------------------
    total drift:                                0.000000      0.000000     -0.000000


--------------------------------------------------------------------------------------------------------



  ML FREE ENERGIE OF THE ION-ELECTRON SYSTEM (eV)
  ---------------------------------------------------
  free  energy ML TOTEN  =       -87.99045111 eV

  ML energy  without entropy=      -87.99045111  ML energy(sigma->0) =      -87.99045111

      MLFF:  cpu time      0.0006: real time      0.0037
     LOOP+:  cpu time      0.0014: real time      0.0134
           RANDOM_SEED =         706023541              288                0
   IONSTEP:  cpu time      0.0002: real time      0.0002

  ENERGY OF THE ELECTRON-ION-THERMOSTAT SYSTEM (eV)
  ---------------------------------------------------
% ion-electron   TOTEN  =       -87.990451  see above
  kinetic energy EKIN   =         0.646199
  kin. lattice  EKIN_LAT=         0.000000  (temperature  312.45 K)
  nose potential ES     =         0.000000
  nose kinetic   EPS    =         0.000000
  ---------------------------------------------------
  total energy   ETOTAL =       -87.344252 eV



--------------------------------------- Ionic step        3  -------------------------------------------



  ML FORCE on cell =-STRESS in cart. coord. units (eV/cell)
  Direction    XX          YY          ZZ          XY          YZ          ZX
  --------------------------------------------------------------------------------------
  Total:      0.18287    -2.82636     3.21193     3.65444    -0.74501     3.06023
  in kB       0.91726   -14.17690    16.11090    18.33049    -3.73696    15.34996
  external pressure =        0.95 kB  Pullay stress =        0.00 kB

  kinetic pressure (ideal gas correction) =      2.20 kB
  total pressure  =      3.15 kB
  Total+kin.     2.699     -12.278      19.026      18.316      -3.976      16.548
  volume of cell :      319.42
      direct lattice vectors                 reciprocal lattice vectors
     5.362444775  5.540010018  0.070050826     0.092315612  0.092315612 -0.092315612
    -0.102691642  5.495517549  5.392825907    -0.093063012  0.088903471  0.093063012
     5.365664814  0.000000000  5.365664814     0.092328882 -0.090558718  0.094041313

  length of vectors
     7.710540324  7.700248695  7.588195952     0.159895330  0.158824669  0.159903948


  POSITION                                       TOTAL-FORCE (eV/Angst) (ML)
 -----------------------------------------------------------------------------------
      3.34928      3.49053      3.36751        -0.416577      0.090127     -0.074923
      6.07864      3.44274      6.17512        -0.462845     -0.894321     -1.147049
      3.30126      6.22806      6.07354        -0.363291     -0.674962     -1.598549
      5.78391      6.24407      8.79981         1.246573     -0.006564      0.439643
      6.04171      6.25094      3.37671         0.213927     -1.529024      0.166770
      8.54452      6.22186      6.13770        -0.230548      1.118808     -0.518811
      5.82778      8.97687      6.13449         0.265866      0.495583     -1.001896
      8.65612      9.06910      8.70142         0.256254     -1.526147      0.052482
      9.76760     10.40836     10.17453         0.968715     -0.103032      0.366962
      7.32310     10.28953      7.35144        -0.941689      1.262347      0.226332
     10.05890      7.52209      7.42500        -0.991472      0.623226      0.051531
      7.22473      7.71839      4.69528         0.641694     -0.390835      0.824661
      7.30715      7.69693     10.06369        -0.127534     -0.891621      0.124610
      4.54682      7.56728      7.39706        -0.211514      0.425785      0.703648
      7.22887      4.86421      7.44698         0.533522      0.604117      1.477562
      4.75701      4.72300      4.76519        -0.381080      1.396513     -0.092975
 -----------------------------------------------------------------------------------
    total drift:                                0.000000      0.000000      0.000000


--------------------------------------------------------------------------------------------------------



  ML FREE ENERGIE OF THE ION-ELECTRON SYSTEM (eV)
  ---------------------------------------------------
  free  energy ML TOTEN  =       -87.99964777 eV

  ML energy  without entropy=      -87.99964777  ML energy(sigma->0) =      -87.99964777

      MLFF:  cpu time      0.0006: real time      0.0045
     LOOP+:  cpu time      0.0008: real time      0.0047
           RANDOM_SEED =         706023541              384                0
   IONSTEP:  cpu time      0.0002: real time      0.0002

  ENERGY OF THE ELECTRON-ION-THERMOSTAT SYSTEM (eV)
  ---------------------------------------------------
% ion-electron   TOTEN  =       -87.999648  see above
  kinetic energy EKIN   =         0.658322
  kin. lattice  EKIN_LAT=         0.000000  (temperature  318.31 K)
  nose potential ES     =         0.000000
  nose kinetic   EPS    =         0.000000
  ---------------------------------------------------
  total energy   ETOTAL =       -87.341326 eV



--------------------------------------- Ionic step        4  -------------------------------------------



  ML FORCE on cell =-STRESS in cart. coord. units (eV/cell)
  Direction    XX          YY          ZZ          XY          YZ          ZX
  --------------------------------------------------------------------------------------
  Total:      0.14817    -2.85522     3.16093     3.53728    -0.74816     2.99186
  in kB       0.74323   -14.32166    15.85508    17.74285    -3.75275    15.00703
  external pressure =        0.76 kB  Pullay stress =        0.00 kB

  kinetic pressure (ideal gas correction) =      2.21 kB
  total pressure  =      2.97 kB
  Total+kin.     2.551     -12.352      18.718      17.798      -4.006      16.205
  volume of cell :      319.42
      direct lattice vectors                 reciprocal lattice vectors
     5.362444775  5.540010018  0.070050826     0.092315612  0.092315612 -0.092315612
    -0.102691642  5.495517549  5.392825907    -0.093063012  0.088903471  0.093063012
     5.365664814  0.000000000  5.365664814     0.092328882 -0.090558718  0.094041313

  length of vectors
     7.710540324  7.700248695  7.588195952     0.159895330  0.158824669  0.159903948


  POSITION                                       TOTAL-FORCE (eV/Angst) (ML)
 -----------------------------------------------------------------------------------
      3.34489      3.48801      3.36422        -0.313827      0.165564      0.004652
      6.07917      3.44042      6.17868        -0.441280     -0.874423     -1.152546
      3.29923      6.22898      6.07221        -0.350742     -0.687986     -1.642626
      5.78206      6.25233      8.79788         1.252035     -0.130289      0.488681
      6.04212      6.24909      3.37774         0.219400     -1.478468      0.154344
      8.54779      6.21961      6.13558        -0.277548      1.149165     -0.479333
      5.82859      8.97491      6.12781         0.203079      0.480309     -0.920213
      8.65457      9.07027      8.69897         0.217485     -1.484728      0.026917
      9.76560     10.40845     10.17710         1.025812     -0.120205      0.246261
      7.31929     10.29312      7.34302        -0.906933      1.193140      0.316113
     10.05654      7.51989      7.42373        -0.957005      0.626363      0.101601
      7.22736      7.71859      4.69844         0.627701     -0.443805      0.753670
      7.30522      7.69604     10.06156        -0.110549     -0.843890      0.133432
      4.54342      7.56389      7.39600        -0.193763      0.533540      0.651731
      7.23112      4.86658      7.44662         0.480489      0.595309      1.481333
      4.76263      4.72519      4.76919        -0.474353      1.320401     -0.164018
 -----------------------------------------------------------------------------------
    total drift:                                0.000000     -0.000000      0.000000


--------------------------------------------------------------------------------------------------------



  ML FREE ENERGIE OF THE ION-ELECTRON SYSTEM (eV)
  ---------------------------------------------------
  free  energy ML TOTEN  =       -88.01183061 eV

  ML energy  without entropy=      -88.01183061  ML energy(sigma->0) =      -88.01183061

      MLFF:  cpu time      0.0006: real time      0.0047
     LOOP+:  cpu time      0.0007: real time      0.0049
           RANDOM_SEED =         706023541              480                0
   IONSTEP:  cpu time      0.0002: real time      0.0002

  ENERGY OF THE ELECTRON-ION-THERMOSTAT SYSTEM (eV)
  ---------------------------------------------------
% ion-electron   TOTEN  =       -88.011831  see above
  kinetic energy EKIN   =         0.666542
  kin. lattice  EKIN_LAT=         0.000000  (temperature  322.29 K)
  nose potential ES     =         0.000000
  nose kinetic   EPS    =         0.000000
  ---------------------------------------------------
  total energy   ETOTAL =       -87.345289 eV



--------------------------------------- Ionic step        5  -------------------------------------------



  ML FORCE on cell =-STRESS in cart. coord. units (eV/cell)
  Direction    XX          YY          ZZ          XY          YZ          ZX
  --------------------------------------------------------------------------------------
  Total:      0.10745    -2.89458     3.09800     3.39584    -0.74597     2.90256
  in kB       0.53896   -14.51907    15.53945    17.03337    -3.74178    14.55909
  external pressure =        0.52 kB  Pullay stress =        0.00 kB

  kinetic pressure (ideal gas correction) =      2.25 kB
  total pressure  =      2.77 kB
  Total+kin.     2.407     -12.505      18.420      17.225      -4.005      15.799
  volume of cell :      319.42
      direct lattice vectors                 reciprocal lattice vectors
     5.362444775  5.540010018  0.070050826     0.092315612  0.092315612 -0.092315612
    -0.102691642  5.495517549  5.392825907    -0.093063012  0.088903471  0.093063012
     5.365664814  0.000000000  5.365664814     0.092328882 -0.090558718  0.094041313

  length of vectors
     7.710540324  7.700248695  7.588195952     0.159895330  0.158824669  0.159903948


  POSITION                                       TOTAL-FORCE (eV/Angst) (ML)
 -----------------------------------------------------------------------------------
      3.34047      3.48555      3.36096        -0.213572      0.237472      0.084733
      6.07971      3.43770      6.18182        -0.418435     -0.843682     -1.147215
      3.29691      6.22991      6.07044        -0.333305     -0.699027     -1.677419
      5.78079      6.26038      8.79602         1.248908     -0.250162      0.535895
      6.04251      6.24657      3.37883         0.223753     -1.414947      0.141173
      8.55084      6.21802      6.13346        -0.323668      1.169392     -0.437034
      5.82938      8.97298      6.12066         0.139616      0.466270     -0.828638
      8.65315      9.07090      8.69661         0.175951     -1.433307      0.001427
      9.76377     10.40844     10.17982         1.077690     -0.135629      0.123430
      7.31519     10.29713      7.33491        -0.869245      1.114685      0.402336
     10.05373      7.51783      7.42270        -0.913130      0.626805      0.151312
      7.23004      7.71863      4.70199         0.612767     -0.496917      0.673488
      7.30332      7.69496     10.05955        -0.093297     -0.795194      0.139466
      4.53980      7.56061      7.39509        -0.173262      0.636064      0.596502
      7.23348      4.86908      7.44679         0.424864      0.579481      1.470659
      4.76824      4.72787      4.77321        -0.565634      1.238698     -0.230116
 -----------------------------------------------------------------------------------
    total drift:                                0.000000      0.000000      0.000000


--------------------------------------------------------------------------------------------------------



  ML FREE ENERGIE OF THE ION-ELECTRON SYSTEM (eV)
  ---------------------------------------------------
  free  energy ML TOTEN  =       -88.02701906 eV

  ML energy  without entropy=      -88.02701906  ML energy(sigma->0) =      -88.02701906

      MLFF:  cpu time      0.0006: real time      0.0049
     LOOP+:  cpu time      0.0008: real time      0.0051
           RANDOM_SEED =         706023541              576                0
   IONSTEP:  cpu time      0.0002: real time      0.0002

  ENERGY OF THE ELECTRON-ION-THERMOSTAT SYSTEM (eV)
  ---------------------------------------------------
% ion-electron   TOTEN  =       -88.027019  see above
  kinetic energy EKIN   =         0.679426
  kin. lattice  EKIN_LAT=         0.000000  (temperature  328.51 K)
  nose potential ES     =         0.000000
  nose kinetic   EPS    =         0.000000
  ---------------------------------------------------
  total energy   ETOTAL =       -87.347593 eV



--------------------------------------- Ionic step        6  -------------------------------------------



  ML FORCE on cell =-STRESS in cart. coord. units (eV/cell)
  Direction    XX          YY          ZZ          XY          YZ          ZX
  --------------------------------------------------------------------------------------
  Total:      0.06356    -2.94344     3.02492     3.23421    -0.75076     2.79040
  in kB       0.31881   -14.76416    15.17284    16.22265    -3.76577    13.99651
  external pressure =        0.24 kB  Pullay stress =        0.00 kB

  kinetic pressure (ideal gas correction) =      2.30 kB
  total pressure  =      2.54 kB
  Total+kin.     2.245     -12.671      18.049      16.491      -3.998      15.333
  volume of cell :      319.42
      direct lattice vectors                 reciprocal lattice vectors
     5.362444775  5.540010018  0.070050826     0.092315612  0.092315612 -0.092315612
    -0.102691642  5.495517549  5.392825907    -0.093063012  0.088903471  0.093063012
     5.365664814  0.000000000  5.365664814     0.092328882 -0.090558718  0.094041313

  length of vectors
     7.710540324  7.700248695  7.588195952     0.159895330  0.158824669  0.159903948


  POSITION                                       TOTAL-FORCE (eV/Angst) (ML)
 -----------------------------------------------------------------------------------
      3.33598      3.48315      3.35767        -0.115215      0.306208      0.165455
      6.08013      3.43466      6.18468        -0.390483     -0.801008     -1.130007
      3.29438      6.23058      6.06800        -0.309813     -0.703615     -1.699354
      5.77981      6.26840      8.79440         1.240659     -0.364508      0.579515
      6.04302      6.24361      3.38007         0.225743     -1.341896      0.126636
      8.55386      6.21677      6.13129        -0.371150      1.182109     -0.391971
      5.82998      8.97126      6.11339         0.080533      0.452740     -0.732397
      8.65175      9.07088      8.69439         0.135048     -1.373400     -0.024326
      9.76226     10.40848     10.18247         1.122054     -0.153835      0.000759
      7.31105     10.30151      7.32716        -0.831852      1.028414      0.485086
     10.05065      7.51577      7.42159        -0.862429      0.623993      0.204595
      7.23303      7.71862      4.70579         0.593360     -0.549518      0.590278
      7.30133      7.69376     10.05777        -0.075222     -0.745962      0.143327
      4.53596      7.55758      7.39437        -0.154003      0.729389      0.534952
      7.23590      4.87189      7.44787         0.365471      0.555949      1.442519
      4.77372      4.73076      4.77744        -0.652701      1.154939     -0.295067
 -----------------------------------------------------------------------------------
    total drift:                               -0.000000     -0.000000      0.000000


--------------------------------------------------------------------------------------------------------



  ML FREE ENERGIE OF THE ION-ELECTRON SYSTEM (eV)
  ---------------------------------------------------
  free  energy ML TOTEN  =       -88.04401315 eV

  ML energy  without entropy=      -88.04401315  ML energy(sigma->0) =      -88.04401315

      MLFF:  cpu time      0.0005: real time      0.0051
     LOOP+:  cpu time      0.0007: real time      0.0053
           RANDOM_SEED =         706023541              672                0
   IONSTEP:  cpu time      0.0002: real time      0.0002

  ENERGY OF THE ELECTRON-ION-THERMOSTAT SYSTEM (eV)
  ---------------------------------------------------
% ion-electron   TOTEN  =       -88.044013  see above
  kinetic energy EKIN   =         0.697266
  kin. lattice  EKIN_LAT=         0.000000  (temperature  337.14 K)
  nose potential ES     =         0.000000
  nose kinetic   EPS    =         0.000000
  ---------------------------------------------------
  total energy   ETOTAL =       -87.346747 eV



--------------------------------------- Ionic step        7  -------------------------------------------



  ML FORCE on cell =-STRESS in cart. coord. units (eV/cell)
  Direction    XX          YY          ZZ          XY          YZ          ZX
  --------------------------------------------------------------------------------------
  Total:      0.01966    -3.00094     2.94024     3.05345    -0.75961     2.65938
  in kB       0.09860   -15.05259    14.74810    15.31598    -3.81015    13.33932
  external pressure =       -0.07 kB  Pullay stress =        0.00 kB

  kinetic pressure (ideal gas correction) =      2.37 kB
  total pressure  =      2.31 kB
  Total+kin.     2.098     -12.898      17.717      15.643      -3.993      14.772
  volume of cell :      319.42
      direct lattice vectors                 reciprocal lattice vectors
     5.362444775  5.540010018  0.070050826     0.092315612  0.092315612 -0.092315612
    -0.102691642  5.495517549  5.392825907    -0.093063012  0.088903471  0.093063012
     5.365664814  0.000000000  5.365664814     0.092328882 -0.090558718  0.094041313

  length of vectors
     7.710540324  7.700248695  7.588195952     0.159895330  0.158824669  0.159903948


  POSITION                                       TOTAL-FORCE (eV/Angst) (ML)
 -----------------------------------------------------------------------------------
      3.33149      3.48067      3.35410        -0.021091      0.373800      0.246973
      6.08027      3.43170      6.18704        -0.358754     -0.751772     -1.102950
      3.29167      6.23105      6.06492        -0.283451     -0.702445     -1.710826
      5.77920      6.27632      8.79298         1.225003     -0.473700      0.616612
      6.04352      6.24031      3.38127         0.227327     -1.261204      0.113201
      8.55661      6.21597      6.12889        -0.412560      1.187388     -0.343274
      5.83063      8.96955      6.10595         0.023308      0.439293     -0.633516
      8.65040      9.07030      8.69207         0.092741     -1.303065     -0.047294
      9.76124     10.40842     10.18525         1.156719     -0.173265     -0.124196
      7.30648     10.30631      7.31949        -0.789199      0.934962      0.567539
     10.04741      7.51390      7.42065        -0.808358      0.619296      0.254194
      7.23651      7.71848      4.70971         0.567839     -0.601318      0.502693
      7.29913      7.69238     10.05603        -0.055137     -0.693495      0.146161
      4.53179      7.55494      7.39368        -0.131193      0.809194      0.469935
      7.23855      4.87492      7.44942         0.300498      0.526821      1.401735
      4.77875      4.73397      4.78152        -0.733693      1.069509     -0.356984
 -----------------------------------------------------------------------------------
    total drift:                               -0.000000      0.000000      0.000000


--------------------------------------------------------------------------------------------------------



  ML FREE ENERGIE OF THE ION-ELECTRON SYSTEM (eV)
  ---------------------------------------------------
  free  energy ML TOTEN  =       -88.06286103 eV

  ML energy  without entropy=      -88.06286103  ML energy(sigma->0) =      -88.06286103

      MLFF:  cpu time      0.0005: real time      0.0041
     LOOP+:  cpu time      0.0007: real time      0.0043
           RANDOM_SEED =         706023541              768                0
   IONSTEP:  cpu time      0.0002: real time      0.0002

  ENERGY OF THE ELECTRON-ION-THERMOSTAT SYSTEM (eV)
  ---------------------------------------------------
% ion-electron   TOTEN  =       -88.062861  see above
  kinetic energy EKIN   =         0.720055
  kin. lattice  EKIN_LAT=         0.000000  (temperature  348.16 K)
  nose potential ES     =         0.000000
  nose kinetic   EPS    =         0.000000
  ---------------------------------------------------
  total energy   ETOTAL =       -87.342806 eV



--------------------------------------- Ionic step        8  -------------------------------------------



  ML FORCE on cell =-STRESS in cart. coord. units (eV/cell)
  Direction    XX          YY          ZZ          XY          YZ          ZX
  --------------------------------------------------------------------------------------
  Total:     -0.02591    -3.06585     2.84593     2.86191    -0.76589     2.50387
  in kB      -0.12999   -15.37815    14.27506    14.35523    -3.84167    12.55929
  external pressure =       -0.41 kB  Pullay stress =        0.00 kB

  kinetic pressure (ideal gas correction) =      2.45 kB
  total pressure  =      2.04 kB
  Total+kin.     1.945     -13.123      17.300      14.687      -4.050      14.064
  volume of cell :      319.42
      direct lattice vectors                 reciprocal lattice vectors
     5.362444775  5.540010018  0.070050826     0.092315612  0.092315612 -0.092315612
    -0.102691642  5.495517549  5.392825907    -0.093063012  0.088903471  0.093063012
     5.365664814  0.000000000  5.365664814     0.092328882 -0.090558718  0.094041313

  length of vectors
     7.710540324  7.700248695  7.588195952     0.159895330  0.158824669  0.159903948


  POSITION                                       TOTAL-FORCE (eV/Angst) (ML)
 -----------------------------------------------------------------------------------
      3.32705      3.47827      3.35066         0.067957      0.437320      0.324206
      6.08046      3.42844      6.18898        -0.329791     -0.692591     -1.070955
      3.28876      6.23106      6.06124        -0.250783     -0.691819     -1.709631
      5.77913      6.28405      8.79149         1.200845     -0.577640      0.650676
      6.04401      6.23654      3.38245         0.227069     -1.167991      0.099496
      8.55911      6.21559      6.12654        -0.447960      1.183522     -0.294721
      5.83124      8.96785      6.09805        -0.033296      0.428257     -0.528459
      8.64880      9.06933      8.68985         0.050113     -1.225884     -0.072330
      9.76049     10.40803     10.18783         1.183766     -0.185947     -0.246036
      7.30134     10.31161      7.31200        -0.743193      0.832852      0.646716
     10.04388      7.51241      7.41992        -0.749717      0.610338      0.302971
      7.24022      7.71838      4.71393         0.540077     -0.655919      0.409140
      7.29703      7.69088     10.05448        -0.035685     -0.642334      0.146476
      4.52750      7.55272      7.39305        -0.109406      0.875436      0.400796
      7.24123      4.87797      7.45140         0.234856      0.494298      1.350617
      4.78335      4.73761      4.78525        -0.804853      0.978101     -0.408962
 -----------------------------------------------------------------------------------
    total drift:                               -0.000000     -0.000000     -0.000000


--------------------------------------------------------------------------------------------------------



  ML FREE ENERGIE OF THE ION-ELECTRON SYSTEM (eV)
  ---------------------------------------------------
  free  energy ML TOTEN  =       -88.08353100 eV

  ML energy  without entropy=      -88.08353100  ML energy(sigma->0) =      -88.08353100

      MLFF:  cpu time      0.0005: real time      0.0047
     LOOP+:  cpu time      0.0007: real time      0.0049
           RANDOM_SEED =         706023541              864                0
   IONSTEP:  cpu time      0.0002: real time      0.0002

  ENERGY OF THE ELECTRON-ION-THERMOSTAT SYSTEM (eV)
  ---------------------------------------------------
% ion-electron   TOTEN  =       -88.083531  see above
  kinetic energy EKIN   =         0.744359
  kin. lattice  EKIN_LAT=         0.000000  (temperature  359.91 K)
  nose potential ES     =         0.000000
  nose kinetic   EPS    =         0.000000
  ---------------------------------------------------
  total energy   ETOTAL =       -87.339172 eV



--------------------------------------- Ionic step        9  -------------------------------------------



  ML FORCE on cell =-STRESS in cart. coord. units (eV/cell)
  Direction    XX          YY          ZZ          XY          YZ          ZX
  --------------------------------------------------------------------------------------
  Total:     -0.07095    -3.13566     2.74409     2.66171    -0.78607     2.32714
  in kB      -0.35586   -15.72833    13.76422    13.35100    -3.94290    11.67283
  external pressure =       -0.77 kB  Pullay stress =        0.00 kB

  kinetic pressure (ideal gas correction) =      2.53 kB
  total pressure  =      1.76 kB
  Total+kin.     1.741     -13.298      16.839      13.663      -4.173      13.217
  volume of cell :      319.42
      direct lattice vectors                 reciprocal lattice vectors
     5.362444775  5.540010018  0.070050826     0.092315612  0.092315612 -0.092315612
    -0.102691642  5.495517549  5.392825907    -0.093063012  0.088903471  0.093063012
     5.365664814  0.000000000  5.365664814     0.092328882 -0.090558718  0.094041313

  length of vectors
     7.710540324  7.700248695  7.588195952     0.159895330  0.158824669  0.159903948


  POSITION                                       TOTAL-FORCE (eV/Angst) (ML)
 -----------------------------------------------------------------------------------
      3.32251      3.47595      3.34754         0.154600      0.496206      0.395727
      6.08056      3.42478      6.19064        -0.297227     -0.621434     -1.032711
      3.28574      6.23091      6.05697        -0.212313     -0.674723     -1.696495
      5.77915      6.29158      8.79019         1.176862     -0.674766      0.678791
      6.04441      6.23215      3.38386         0.227349     -1.064434      0.083468
      8.56154      6.21557      6.12407        -0.479404      1.172343     -0.244116
      5.83180      8.96626      6.09004        -0.086030      0.418893     -0.420859
      8.64745      9.06795      8.68748         0.006338     -1.143199     -0.093897
      9.76018     10.40781     10.19018         1.201591     -0.201979     -0.364521
      7.29611     10.31735      7.30470        -0.697551      0.723367      0.722349
     10.04031      7.51102      7.41919        -0.687890      0.597170      0.352715
      7.24428      7.71808      4.71839         0.506217     -0.709080      0.313065
      7.29504      7.68919     10.05316        -0.016361     -0.588921      0.141968
      4.52318      7.55079      7.39259        -0.090960      0.932857      0.328162
      7.24415      4.88125      7.45385         0.163731      0.455605      1.289224
      4.78757      4.74147      4.78886        -0.868954      0.882096     -0.452869
 -----------------------------------------------------------------------------------
    total drift:                               -0.000000     -0.000000     -0.000000


--------------------------------------------------------------------------------------------------------



  ML FREE ENERGIE OF THE ION-ELECTRON SYSTEM (eV)
  ---------------------------------------------------
  free  energy ML TOTEN  =       -88.10439699 eV

  ML energy  without entropy=      -88.10439699  ML energy(sigma->0) =      -88.10439699

      MLFF:  cpu time      0.0005: real time      0.0045
     LOOP+:  cpu time      0.0007: real time      0.0047
           RANDOM_SEED =         706023541              960                0
   IONSTEP:  cpu time      0.0002: real time      0.0002

  ENERGY OF THE ELECTRON-ION-THERMOSTAT SYSTEM (eV)
  ---------------------------------------------------
% ion-electron   TOTEN  =       -88.104397  see above
  kinetic energy EKIN   =         0.767860
  kin. lattice  EKIN_LAT=         0.000000  (temperature  371.27 K)
  nose potential ES     =         0.000000
  nose kinetic   EPS    =         0.000000
  ---------------------------------------------------
  total energy   ETOTAL =       -87.336537 eV



--------------------------------------- Ionic step       10  -------------------------------------------



  ML FORCE on cell =-STRESS in cart. coord. units (eV/cell)
  Direction    XX          YY          ZZ          XY          YZ          ZX
  --------------------------------------------------------------------------------------
  Total:     -0.11589    -3.20929     2.63604     2.45980    -0.80774     2.14137
  in kB      -0.58130   -16.09766    13.22225    12.33826    -4.05161    10.74101
  external pressure =       -1.15 kB  Pullay stress =        0.00 kB

  kinetic pressure (ideal gas correction) =      2.61 kB
  total pressure  =      1.46 kB
  Total+kin.     1.576     -13.544      16.342      12.659      -4.269      12.317
  volume of cell :      319.42
      direct lattice vectors                 reciprocal lattice vectors
     5.362444775  5.540010018  0.070050826     0.092315612  0.092315612 -0.092315612
    -0.102691642  5.495517549  5.392825907    -0.093063012  0.088903471  0.093063012
     5.365664814  0.000000000  5.365664814     0.092328882 -0.090558718  0.094041313

  length of vectors
     7.710540324  7.700248695  7.588195952     0.159895330  0.158824669  0.159903948


  POSITION                                       TOTAL-FORCE (eV/Angst) (ML)
 -----------------------------------------------------------------------------------
      3.31786      3.47368      3.34466         0.238723      0.548851      0.463900
      6.08054      3.42089      6.19201        -0.264698     -0.544792     -0.989193
      3.28236      6.23039      6.05207        -0.163063     -0.647347     -1.671032
      5.77962      6.29902      8.78921         1.144953     -0.766663      0.697648
      6.04504      6.22766      3.38544         0.222434     -0.959503      0.063061
      8.56381      6.21609      6.12153        -0.509294      1.147471     -0.192285
      5.83242      8.96473      6.08187        -0.138459      0.413259     -0.310579
      8.64595      9.06601      8.68524        -0.034886     -1.053076     -0.117538
      9.76013     10.40747     10.19227         1.212178     -0.214864     -0.477396
      7.29068     10.32347      7.29765        -0.651132      0.607362      0.794254
     10.03643      7.50951      7.41867        -0.620374      0.585960      0.400228
      7.24809      7.71742      4.72302         0.477267     -0.754928      0.216092
      7.29317      7.68746     10.05168         0.000438     -0.536018      0.141399
      4.51896      7.54936      7.39215        -0.077598      0.974535      0.253400
      7.24712      4.88449      7.45688         0.092053      0.416922      1.216778
      4.79169      4.74556      4.79211        -0.928542      0.782829     -0.488736
 -----------------------------------------------------------------------------------
    total drift:                                0.000000      0.000000      0.000000


--------------------------------------------------------------------------------------------------------



  ML FREE ENERGIE OF THE ION-ELECTRON SYSTEM (eV)
  ---------------------------------------------------
  free  energy ML TOTEN  =       -88.12513540 eV

  ML energy  without entropy=      -88.12513540  ML energy(sigma->0) =      -88.12513540

      MLFF:  cpu time      0.0005: real time      0.0050
     LOOP+:  cpu time      0.0007: real time      0.0052
           RANDOM_SEED =         706023541             1056                0
   IONSTEP:  cpu time      0.0002: real time      0.0002

  ENERGY OF THE ELECTRON-ION-THERMOSTAT SYSTEM (eV)
  ---------------------------------------------------
% ion-electron   TOTEN  =       -88.125135  see above
  kinetic energy EKIN   =         0.797676
  kin. lattice  EKIN_LAT=         0.000000  (temperature  385.69 K)
  nose potential ES     =         0.000000
  nose kinetic   EPS    =         0.000000
  ---------------------------------------------------
  total energy   ETOTAL =       -87.327460 eV



--------------------------------------- Ionic step       11  -------------------------------------------



  ML FORCE on cell =-STRESS in cart. coord. units (eV/cell)
  Direction    XX          YY          ZZ          XY          YZ          ZX
  --------------------------------------------------------------------------------------
  Total:     -0.15843    -3.28464     2.52189     2.25055    -0.83222     1.94638
  in kB      -0.79469   -16.47561    12.64971    11.28868    -4.17438     9.76294
  external pressure =       -1.54 kB  Pullay stress =        0.00 kB

  kinetic pressure (ideal gas correction) =      2.73 kB
  total pressure  =      1.19 kB
  Total+kin.     1.500     -13.768      15.846      11.635      -4.365      11.432
  volume of cell :      319.42
      direct lattice vectors                 reciprocal lattice vectors
     5.362444775  5.540010018  0.070050826     0.092315612  0.092315612 -0.092315612
    -0.102691642  5.495517549  5.392825907    -0.093063012  0.088903471  0.093063012
     5.365664814  0.000000000  5.365664814     0.092328882 -0.090558718  0.094041313

  length of vectors
     7.710540324  7.700248695  7.588195952     0.159895330  0.158824669  0.159903948


  POSITION                                       TOTAL-FORCE (eV/Angst) (ML)
 -----------------------------------------------------------------------------------
      3.31315      3.47162      3.34171         0.318677      0.597361      0.533153
      6.08030      3.41683      6.19283        -0.229217     -0.462615     -0.939032
      3.27882      6.22963      6.04676        -0.109311     -0.613156     -1.636615
      5.78058      6.30619      8.78851         1.102454     -0.851268      0.706319
      6.04547      6.22290      3.38721         0.219110     -0.846597      0.040167
      8.56594      6.21700      6.11886        -0.535197      1.112931     -0.138544
      5.83293      8.96347      6.07376        -0.188395      0.405766     -0.200640
      8.64441      9.06374      8.68280        -0.076157     -0.959410     -0.137584
      9.76037     10.40711     10.19403         1.215060     -0.226730     -0.585069
      7.28498     10.33002      7.29075        -0.605566      0.486679      0.863225
     10.03233      7.50821      7.41822        -0.549511      0.572449      0.445725
      7.25218      7.71660      4.72784         0.443769     -0.795386      0.117245
      7.29124      7.68533     10.05011         0.019717     -0.478012      0.141359
      4.51440      7.54833      7.39189        -0.059778      1.003809      0.177620
      7.25005      4.88786      7.46038         0.019516      0.375443      1.132386
      4.79557      4.75005      4.79525        -0.985173      0.678736     -0.519716
 -----------------------------------------------------------------------------------
    total drift:                                0.000000     -0.000000     -0.000000


--------------------------------------------------------------------------------------------------------



  ML FREE ENERGIE OF THE ION-ELECTRON SYSTEM (eV)
  ---------------------------------------------------
  free  energy ML TOTEN  =       -88.14533255 eV

  ML energy  without entropy=      -88.14533255  ML energy(sigma->0) =      -88.14533255

      MLFF:  cpu time      0.0005: real time      0.0042
     LOOP+:  cpu time      0.0007: real time      0.0043
           RANDOM_SEED =         706023541             1152                0
   IONSTEP:  cpu time      0.0002: real time      0.0002

  ENERGY OF THE ELECTRON-ION-THERMOSTAT SYSTEM (eV)
  ---------------------------------------------------
% ion-electron   TOTEN  =       -88.145333  see above
  kinetic energy EKIN   =         0.823718
  kin. lattice  EKIN_LAT=         0.000000  (temperature  398.28 K)
  nose potential ES     =         0.000000
  nose kinetic   EPS    =         0.000000
  ---------------------------------------------------
  total energy   ETOTAL =       -87.321614 eV



--------------------------------------- Ionic step       12  -------------------------------------------



  ML FORCE on cell =-STRESS in cart. coord. units (eV/cell)
  Direction    XX          YY          ZZ          XY          YZ          ZX
  --------------------------------------------------------------------------------------
  Total:     -0.19653    -3.36216     2.39996     2.03217    -0.86190     1.74264
  in kB      -0.98579   -16.86446    12.03807    10.19330    -4.32327     8.74101
  external pressure =       -1.94 kB  Pullay stress =        0.00 kB

  kinetic pressure (ideal gas correction) =      2.79 kB
  total pressure  =      0.85 kB
  Total+kin.     1.349     -14.137      15.332      10.531      -4.498      10.416
  volume of cell :      319.42
      direct lattice vectors                 reciprocal lattice vectors
     5.362444775  5.540010018  0.070050826     0.092315612  0.092315612 -0.092315612
    -0.102691642  5.495517549  5.392825907    -0.093063012  0.088903471  0.093063012
     5.365664814  0.000000000  5.365664814     0.092328882 -0.090558718  0.094041313

  length of vectors
     7.710540324  7.700248695  7.588195952     0.159895330  0.158824669  0.159903948


  POSITION                                       TOTAL-FORCE (eV/Angst) (ML)
 -----------------------------------------------------------------------------------
      3.30848      3.46977      3.33914         0.393648      0.639045      0.596564
      6.07997      3.41266      6.19352        -0.196663     -0.376312     -0.884766
      3.27514      6.22847      6.04097        -0.050324     -0.570062     -1.592340
      5.78207      6.31279      8.78784         1.050650     -0.923832      0.709112
      6.04576      6.21782      3.38886         0.216240     -0.729841      0.018250
      8.56786      6.21833      6.11607        -0.554680      1.067313     -0.082650
      5.83345      8.96224      6.06560        -0.234206      0.397326     -0.089917
      8.64273      9.06120      8.68034        -0.113928     -0.861865     -0.150595
      9.76139     10.40669     10.19579         1.204448     -0.236541     -0.690507
      7.27924     10.33664      7.28393        -0.562026      0.364055      0.928544
     10.02793      7.50712      7.41810        -0.476569      0.557803      0.486551
      7.25638      7.71545      4.73281         0.407185     -0.831196      0.015185
      7.28915      7.68314     10.04883         0.040884     -0.419795      0.138523
      4.50984      7.54769      7.39163        -0.043307      1.019727      0.104007
      7.25281      4.89146      7.46446        -0.048142      0.331099      1.038130
      4.79896      4.75460      4.79822        -1.033210      0.573074     -0.544091
 -----------------------------------------------------------------------------------
    total drift:                               -0.000000      0.000000      0.000000


--------------------------------------------------------------------------------------------------------



  ML FREE ENERGIE OF THE ION-ELECTRON SYSTEM (eV)
  ---------------------------------------------------
  free  energy ML TOTEN  =       -88.16478589 eV

  ML energy  without entropy=      -88.16478589  ML energy(sigma->0) =      -88.16478589

      MLFF:  cpu time      0.0006: real time      0.0050
     LOOP+:  cpu time      0.0008: real time      0.0052
           RANDOM_SEED =         706023541             1248                0
   IONSTEP:  cpu time      0.0002: real time      0.0002

  ENERGY OF THE ELECTRON-ION-THERMOSTAT SYSTEM (eV)
  ---------------------------------------------------
% ion-electron   TOTEN  =       -88.164786  see above
  kinetic energy EKIN   =         0.842630
  kin. lattice  EKIN_LAT=         0.000000  (temperature  407.43 K)
  nose potential ES     =         0.000000
  nose kinetic   EPS    =         0.000000
  ---------------------------------------------------
  total energy   ETOTAL =       -87.322156 eV



--------------------------------------- Ionic step       13  -------------------------------------------



  ML FORCE on cell =-STRESS in cart. coord. units (eV/cell)
  Direction    XX          YY          ZZ          XY          YZ          ZX
  --------------------------------------------------------------------------------------
  Total:     -0.23216    -3.44001     2.27536     1.80924    -0.90117     1.53520
  in kB      -1.16452   -17.25494    11.41312     9.07509    -4.52023     7.70049
  external pressure =       -2.34 kB  Pullay stress =        0.00 kB

  kinetic pressure (ideal gas correction) =      2.86 kB
  total pressure  =      0.52 kB
  Total+kin.     1.260     -14.460      14.767       9.379      -4.557       9.459
  volume of cell :      319.42
      direct lattice vectors                 reciprocal lattice vectors
     5.362444775  5.540010018  0.070050826     0.092315612  0.092315612 -0.092315612
    -0.102691642  5.495517549  5.392825907    -0.093063012  0.088903471  0.093063012
     5.365664814  0.000000000  5.365664814     0.092328882 -0.090558718  0.094041313

  length of vectors
     7.710540324  7.700248695  7.588195952     0.159895330  0.158824669  0.159903948


  POSITION                                       TOTAL-FORCE (eV/Angst) (ML)
 -----------------------------------------------------------------------------------
      3.30368      3.46825      3.33685         0.468643      0.672710      0.653962
      6.07967      3.40847      6.19390        -0.164589     -0.286693     -0.826410
      3.27136      6.22688      6.03466         0.012993     -0.521032     -1.535725
      5.78379      6.31893      8.78751         0.993647     -0.987370      0.703723
      6.04616      6.21260      3.39028         0.210897     -0.610860     -0.003228
      8.56959      6.22012      6.11326        -0.568234      1.013228     -0.027192
      5.83365      8.96095      6.05723        -0.273337      0.389978      0.021118
      8.64108      9.05844      8.67787        -0.152224     -0.763430     -0.160257
      9.76270     10.40640     10.19735         1.184693     -0.245752     -0.790103
      7.27312     10.34326      7.27738        -0.516746      0.239508      0.985182
     10.02336      7.50618      7.41807        -0.400121      0.544329      0.524318
      7.26071      7.71396      4.73772         0.367380     -0.859495     -0.086580
      7.28708      7.68058     10.04761         0.063699     -0.357820      0.135405
      4.50554      7.54728      7.39141        -0.033558      1.024760      0.031204
      7.25568      4.89549      7.46899        -0.117549      0.282283      0.936525
      4.80214      4.75925      4.80080        -1.075593      0.465655     -0.561942
 -----------------------------------------------------------------------------------
    total drift:                               -0.000000      0.000000     -0.000000


--------------------------------------------------------------------------------------------------------



  ML FREE ENERGIE OF THE ION-ELECTRON SYSTEM (eV)
  ---------------------------------------------------
  free  energy ML TOTEN  =       -88.18240320 eV

  ML energy  without entropy=      -88.18240320  ML energy(sigma->0) =      -88.18240320

      MLFF:  cpu time      0.0006: real time      0.0044
     LOOP+:  cpu time      0.0008: real time      0.0045
           RANDOM_SEED =         706023541             1344                0
   IONSTEP:  cpu time      0.0002: real time      0.0002

  ENERGY OF THE ELECTRON-ION-THERMOSTAT SYSTEM (eV)
  ---------------------------------------------------
% ion-electron   TOTEN  =       -88.182403  see above
  kinetic energy EKIN   =         0.858296
  kin. lattice  EKIN_LAT=         0.000000  (temperature  415.00 K)
  nose potential ES     =         0.000000
  nose kinetic   EPS    =         0.000000
  ---------------------------------------------------
  total energy   ETOTAL =       -87.324107 eV



--------------------------------------- Ionic step       14  -------------------------------------------



  ML FORCE on cell =-STRESS in cart. coord. units (eV/cell)
  Direction    XX          YY          ZZ          XY          YZ          ZX
  --------------------------------------------------------------------------------------
  Total:     -0.26381    -3.51600     2.15048     1.58425    -0.94495     1.33600
  in kB      -1.32324   -17.63611    10.78672     7.94651    -4.73982     6.70130
  external pressure =       -2.72 kB  Pullay stress =        0.00 kB

  kinetic pressure (ideal gas correction) =      2.89 kB
  total pressure  =      0.17 kB
  Total+kin.     1.136     -14.755      14.122       8.155      -4.733       8.456
  volume of cell :      319.42
      direct lattice vectors                 reciprocal lattice vectors
     5.362444775  5.540010018  0.070050826     0.092315612  0.092315612 -0.092315612
    -0.102691642  5.495517549  5.392825907    -0.093063012  0.088903471  0.093063012
     5.365664814  0.000000000  5.365664814     0.092328882 -0.090558718  0.094041313

  length of vectors
     7.710540324  7.700248695  7.588195952     0.159895330  0.158824669  0.159903948


  POSITION                                       TOTAL-FORCE (eV/Angst) (ML)
 -----------------------------------------------------------------------------------
      3.29896      3.46715      3.33491         0.537573      0.698566      0.706809
      6.07929      3.40424      6.19402        -0.136466     -0.193822     -0.764267
      3.26759      6.22533      6.02783         0.074668     -0.470016     -1.467218
      5.78561      6.32475      8.78754         0.931342     -1.043746      0.687422
      6.04677      6.20713      3.39150         0.201415     -0.491965     -0.022204
      8.57136      6.22251      6.11046        -0.575661      0.945719      0.027001
      5.83347      8.95978      6.04877        -0.301637      0.380555      0.130852
      8.63887      9.05528      8.67549        -0.182892     -0.662982     -0.166586
      9.76444     10.40588     10.19854         1.151747     -0.248698     -0.882410
      7.26692     10.34982      7.27131        -0.471547      0.117242      1.027634
     10.01876      7.50537      7.41839        -0.322423      0.531811      0.557911
      7.26503      7.71190      4.74255         0.325925     -0.875253     -0.186673
      7.28474      7.67816     10.04645         0.087122     -0.298651      0.133618
      4.50128      7.54744      7.39117        -0.025410      1.018652     -0.037515
      7.25854      4.89971      7.47373        -0.184444      0.234904      0.831302
      4.80476      4.76406      4.80327        -1.109310      0.357686     -0.575676
 -----------------------------------------------------------------------------------
    total drift:                                0.000000     -0.000000      0.000000


--------------------------------------------------------------------------------------------------------



  ML FREE ENERGIE OF THE ION-ELECTRON SYSTEM (eV)
  ---------------------------------------------------
  free  energy ML TOTEN  =       -88.19867594 eV

  ML energy  without entropy=      -88.19867594  ML energy(sigma->0) =      -88.19867594

      MLFF:  cpu time      0.0006: real time      0.0051
     LOOP+:  cpu time      0.0007: real time      0.0053
           RANDOM_SEED =         706023541             1440                0
   IONSTEP:  cpu time      0.0002: real time      0.0002

  ENERGY OF THE ELECTRON-ION-THERMOSTAT SYSTEM (eV)
  ---------------------------------------------------
% ion-electron   TOTEN  =       -88.198676  see above
  kinetic energy EKIN   =         0.875350
  kin. lattice  EKIN_LAT=         0.000000  (temperature  423.25 K)
  nose potential ES     =         0.000000
  nose kinetic   EPS    =         0.000000
  ---------------------------------------------------
  total energy   ETOTAL =       -87.323326 eV



--------------------------------------- Ionic step       15  -------------------------------------------



  ML FORCE on cell =-STRESS in cart. coord. units (eV/cell)
  Direction    XX          YY          ZZ          XY          YZ          ZX
  --------------------------------------------------------------------------------------
  Total:     -0.29119    -3.58890     2.02706     1.35457    -0.99425     1.14383
  in kB      -1.46058   -18.00175    10.16766     6.79447    -4.98713     5.73739
  external pressure =       -3.10 kB  Pullay stress =        0.00 kB

  kinetic pressure (ideal gas correction) =      2.97 kB
  total pressure  =     -0.13 kB
  Total+kin.     1.075     -15.010      13.550       6.869      -4.936       7.538
  volume of cell :      319.42
      direct lattice vectors                 reciprocal lattice vectors
     5.362444775  5.540010018  0.070050826     0.092315612  0.092315612 -0.092315612
    -0.102691642  5.495517549  5.392825907    -0.093063012  0.088903471  0.093063012
     5.365664814  0.000000000  5.365664814     0.092328882 -0.090558718  0.094041313

  length of vectors
     7.710540324  7.700248695  7.588195952     0.159895330  0.158824669  0.159903948


  POSITION                                       TOTAL-FORCE (eV/Angst) (ML)
 -----------------------------------------------------------------------------------
      3.29447      3.46624      3.33306         0.601406      0.717713      0.758862
      6.07892      3.40017      6.19393        -0.111030     -0.102530     -0.701610
      3.26358      6.22384      6.02040         0.136561     -0.420643     -1.385420
      5.78754      6.33035      8.78763         0.866330     -1.094771      0.665884
      6.04730      6.20113      3.39288         0.188971     -0.364450     -0.043530
      8.57291      6.22530      6.10760        -0.574789      0.866019      0.081218
      5.83318      8.95861      6.04044        -0.322849      0.370931      0.236455
      8.63666      9.05189      8.67300        -0.211361     -0.560915     -0.168912
      9.76659     10.40532     10.19929         1.110043     -0.246925     -0.965302
      7.26052     10.35632      7.26586        -0.424788     -0.002441      1.057642
     10.01384      7.50496      7.41876        -0.237784      0.514176      0.590015
      7.26960      7.70940      4.74739         0.278653     -0.881475     -0.287901
      7.28263      7.67570     10.04524         0.106103     -0.236834      0.131209
      4.49705      7.54789      7.39084        -0.018785      1.003744     -0.105679
      7.26143      4.90392      7.47886        -0.249084      0.191063      0.721299
      4.80688      4.76899      4.80563        -1.137597      0.247338     -0.584229
 -----------------------------------------------------------------------------------
    total drift:                                0.000000      0.000000      0.000000


--------------------------------------------------------------------------------------------------------



  ML FREE ENERGIE OF THE ION-ELECTRON SYSTEM (eV)
  ---------------------------------------------------
  free  energy ML TOTEN  =       -88.21271919 eV

  ML energy  without entropy=      -88.21271919  ML energy(sigma->0) =      -88.21271919

      MLFF:  cpu time      0.0005: real time      0.0042
     LOOP+:  cpu time      0.0007: real time      0.0044
           RANDOM_SEED =         706023541             1536                0
[...]
  nose kinetic   EPS    =         0.000000
  ---------------------------------------------------
  total energy   ETOTAL =       -87.282522 eV



--------------------------------------- Ionic step       96  -------------------------------------------



  ML FORCE on cell =-STRESS in cart. coord. units (eV/cell)
  Direction    XX          YY          ZZ          XY          YZ          ZX
  --------------------------------------------------------------------------------------
  Total:     -0.65946    -3.99531     0.83450    -1.15565    -0.44156    -0.96066
  in kB      -3.30780   -20.04032     4.18582    -5.79669    -2.21486    -4.81863
  external pressure =       -6.39 kB  Pullay stress =        0.00 kB

  kinetic pressure (ideal gas correction) =      2.40 kB
  total pressure  =     -3.99 kB
  Total+kin.    -0.889     -16.966       5.893      -6.532      -2.978      -4.062
  volume of cell :      319.42
      direct lattice vectors                 reciprocal lattice vectors
     5.362444775  5.540010018  0.070050826     0.092315612  0.092315612 -0.092315612
    -0.102691642  5.495517549  5.392825907    -0.093063012  0.088903471  0.093063012
     5.365664814  0.000000000  5.365664814     0.092328882 -0.090558718  0.094041313

  length of vectors
     7.710540324  7.700248695  7.588195952     0.159895330  0.158824669  0.159903948


  POSITION                                       TOTAL-FORCE (eV/Angst) (ML)
 -----------------------------------------------------------------------------------
      3.18534      3.38004      3.36659         0.548764      1.001725      1.380615
      5.96317      3.50079      6.15773        -0.151339      0.324999     -0.210857
      3.14318      6.24011      5.96532        -0.218721      0.111630     -1.288939
      5.70715      6.38869      8.55643         0.910028     -1.043477      0.890620
      5.96655      6.14828      3.28059        -0.211738      1.002782      0.513628
      8.73077      6.12297      6.07692        -0.636697      0.544571      0.761035
      5.75375      8.92162      5.79464         0.219098      0.189379      0.918739
      8.40983      9.03369      8.61028        -0.569156      0.039846      0.204193
      9.77827     10.37226      9.94158         0.600830      0.137631     -0.808826
      7.08276     10.38278      7.17326        -0.018504     -0.852902      0.142062
      9.89119      7.67902      7.44778         0.452366     -0.914266      0.040204
      7.30705      7.47312      4.81218        -0.432426     -0.190077     -1.068841
      7.03612      7.70657     10.03189         0.778958     -0.708911     -0.193244
      4.34054      7.68664      7.27777         0.521622      0.217088     -0.677979
      7.30089      4.87310      7.49641        -0.504590      0.566135     -0.208603
      4.70293      4.86252      4.74461        -1.288496     -0.426152     -0.393809
 -----------------------------------------------------------------------------------
    total drift:                               -0.000000      0.000000      0.000000


--------------------------------------------------------------------------------------------------------



  ML FREE ENERGIE OF THE ION-ELECTRON SYSTEM (eV)
  ---------------------------------------------------
  free  energy ML TOTEN  =       -88.00071335 eV

  ML energy  without entropy=      -88.00071335  ML energy(sigma->0) =      -88.00071335

      MLFF:  cpu time      0.0005: real time      0.0043
     LOOP+:  cpu time      0.0007: real time      0.0045
           RANDOM_SEED =         706023541             9312                0
   IONSTEP:  cpu time      0.0002: real time      0.0002

  ENERGY OF THE ELECTRON-ION-THERMOSTAT SYSTEM (eV)
  ---------------------------------------------------
% ion-electron   TOTEN  =       -88.000713  see above
  kinetic energy EKIN   =         0.716608
  kin. lattice  EKIN_LAT=         0.000000  (temperature  346.49 K)
  nose potential ES     =         0.000000
  nose kinetic   EPS    =         0.000000
  ---------------------------------------------------
  total energy   ETOTAL =       -87.284105 eV



--------------------------------------- Ionic step       97  -------------------------------------------



  ML FORCE on cell =-STRESS in cart. coord. units (eV/cell)
  Direction    XX          YY          ZZ          XY          YZ          ZX
  --------------------------------------------------------------------------------------
  Total:     -0.68931    -4.03753     0.78217    -1.32750    -0.35057    -1.05637
  in kB      -3.45757   -20.25208     3.92335    -6.65868    -1.75844    -5.29871
  external pressure =       -6.60 kB  Pullay stress =        0.00 kB

  kinetic pressure (ideal gas correction) =      2.40 kB
  total pressure  =     -4.19 kB
  Total+kin.    -1.020     -17.113       5.553      -7.404      -2.494      -4.526
  volume of cell :      319.42
      direct lattice vectors                 reciprocal lattice vectors
     5.362444775  5.540010018  0.070050826     0.092315612  0.092315612 -0.092315612
    -0.102691642  5.495517549  5.392825907    -0.093063012  0.088903471  0.093063012
     5.365664814  0.000000000  5.365664814     0.092328882 -0.090558718  0.094041313

  length of vectors
     7.710540324  7.700248695  7.588195952     0.159895330  0.158824669  0.159903948


  POSITION                                       TOTAL-FORCE (eV/Angst) (ML)
 -----------------------------------------------------------------------------------
      3.18294      3.37719      3.36614         0.558261      1.008959      1.386455
      5.96070      3.49925      6.15180        -0.159214      0.412836     -0.143306
      3.14226      6.24261      5.96209        -0.256281      0.105459     -1.213728
      5.71046      6.38342      8.55836         0.829247     -0.962680      0.805057
      5.96893      6.14799      3.27914        -0.294360      1.034845      0.544758
      8.72771      6.12767      6.07501        -0.566506      0.448136      0.784409
      5.75270      8.92490      5.79085         0.261074      0.141202      0.964682
      8.41022      9.02937      8.61008        -0.604805      0.104206      0.233217
      9.78151     10.37427      9.94217         0.506896      0.120031     -0.836244
      7.07950     10.38488      7.17445         0.062810     -0.893818      0.102506
      9.88632      7.67921      7.44378         0.536749     -0.909790      0.056078
      7.30768      7.46806      4.81601        -0.501469     -0.090052     -1.140805
      7.03171      7.70154     10.03267         0.823983     -0.664495     -0.224473
      4.34085      7.68880      7.27524         0.563615      0.167501     -0.630861
      7.30363      4.87638      7.49792        -0.550365      0.476720     -0.265309
      4.69554      4.86915      4.74439        -1.209638     -0.499058     -0.422436
 -----------------------------------------------------------------------------------
    total drift:                               -0.000000      0.000000     -0.000000


--------------------------------------------------------------------------------------------------------



  ML FREE ENERGIE OF THE ION-ELECTRON SYSTEM (eV)
  ---------------------------------------------------
  free  energy ML TOTEN  =       -88.00960670 eV

  ML energy  without entropy=      -88.00960670  ML energy(sigma->0) =      -88.00960670

      MLFF:  cpu time      0.0005: real time      0.0042
     LOOP+:  cpu time      0.0007: real time      0.0043
           RANDOM_SEED =         706023541             9408                0
   IONSTEP:  cpu time      0.0002: real time      0.0002

  ENERGY OF THE ELECTRON-ION-THERMOSTAT SYSTEM (eV)
  ---------------------------------------------------
% ion-electron   TOTEN  =       -88.009607  see above
  kinetic energy EKIN   =         0.722170
  kin. lattice  EKIN_LAT=         0.000000  (temperature  349.18 K)
  nose potential ES     =         0.000000
  nose kinetic   EPS    =         0.000000
  ---------------------------------------------------
  total energy   ETOTAL =       -87.287437 eV



--------------------------------------- Ionic step       98  -------------------------------------------



  ML FORCE on cell =-STRESS in cart. coord. units (eV/cell)
  Direction    XX          YY          ZZ          XY          YZ          ZX
  --------------------------------------------------------------------------------------
  Total:     -0.71572    -4.07690     0.73418    -1.48512    -0.25489    -1.13232
  in kB      -3.59003   -20.44955     3.68262    -7.44932    -1.27853    -5.67966
  external pressure =       -6.79 kB  Pullay stress =        0.00 kB

  kinetic pressure (ideal gas correction) =      2.44 kB
  total pressure  =     -4.35 kB
  Total+kin.    -1.062     -17.350       5.360      -8.229      -2.150      -4.927
  volume of cell :      319.42
      direct lattice vectors                 reciprocal lattice vectors
     5.362444775  5.540010018  0.070050826     0.092315612  0.092315612 -0.092315612
    -0.102691642  5.495517549  5.392825907    -0.093063012  0.088903471  0.093063012
     5.365664814  0.000000000  5.365664814     0.092328882 -0.090558718  0.094041313

  length of vectors
     7.710540324  7.700248695  7.588195952     0.159895330  0.158824669  0.159903948


  POSITION                                       TOTAL-FORCE (eV/Angst) (ML)
 -----------------------------------------------------------------------------------
      3.18076      3.37473      3.36623         0.564358      1.014236      1.381725
      5.95825      3.49811      6.14582        -0.168750      0.491897     -0.078956
      3.14134      6.24512      5.95848        -0.295977      0.097302     -1.129745
      5.71406      6.37806      8.56071         0.746666     -0.876061      0.712044
      5.97141      6.14815      3.27756        -0.380729      1.058541      0.577155
      8.72450      6.13250      6.07309        -0.491778      0.346937      0.802365
      5.75158      8.92810      5.78724         0.302475      0.093791      1.006524
      8.41065      9.02510      8.60985        -0.638566      0.165859      0.261169
      9.78500     10.37642      9.94227         0.409585      0.102964     -0.854033
      7.07610     10.38648      7.17570         0.146065     -0.926788      0.060256
      9.88139      7.67930      7.43959         0.622150     -0.900321      0.071367
      7.30796      7.46298      4.81954        -0.569201      0.013515     -1.210880
      7.02780      7.69642     10.03348         0.863308     -0.615777     -0.253224
      4.34116      7.69114      7.27248         0.602485      0.115576     -0.576339
      7.30622      4.87994      7.49910        -0.589159      0.385105     -0.313176
      4.68776      4.87553      4.74408        -1.122931     -0.566776     -0.456253
 -----------------------------------------------------------------------------------
    total drift:                                0.000000      0.000000      0.000000


--------------------------------------------------------------------------------------------------------



  ML FREE ENERGIE OF THE ION-ELECTRON SYSTEM (eV)
  ---------------------------------------------------
  free  energy ML TOTEN  =       -88.01722164 eV

  ML energy  without entropy=      -88.01722164  ML energy(sigma->0) =      -88.01722164

      MLFF:  cpu time      0.0005: real time      0.0048
     LOOP+:  cpu time      0.0007: real time      0.0049
           RANDOM_SEED =         706023541             9504                0
   IONSTEP:  cpu time      0.0002: real time      0.0002

  ENERGY OF THE ELECTRON-ION-THERMOSTAT SYSTEM (eV)
  ---------------------------------------------------
% ion-electron   TOTEN  =       -88.017222  see above
  kinetic energy EKIN   =         0.723406
  kin. lattice  EKIN_LAT=         0.000000  (temperature  349.78 K)
  nose potential ES     =         0.000000
  nose kinetic   EPS    =         0.000000
  ---------------------------------------------------
  total energy   ETOTAL =       -87.293816 eV



--------------------------------------- Ionic step       99  -------------------------------------------



  ML FORCE on cell =-STRESS in cart. coord. units (eV/cell)
  Direction    XX          YY          ZZ          XY          YZ          ZX
  --------------------------------------------------------------------------------------
  Total:     -0.73810    -4.11379     0.69041    -1.62690    -0.17556    -1.19037
  in kB      -3.70226   -20.63457     3.46308    -8.16046    -0.88061    -5.97086
  external pressure =       -6.96 kB  Pullay stress =        0.00 kB

  kinetic pressure (ideal gas correction) =      2.41 kB
  total pressure  =     -4.55 kB
  Total+kin.    -1.136     -17.651       5.146      -8.916      -1.733      -5.257
  volume of cell :      319.42
      direct lattice vectors                 reciprocal lattice vectors
     5.362444775  5.540010018  0.070050826     0.092315612  0.092315612 -0.092315612
    -0.102691642  5.495517549  5.392825907    -0.093063012  0.088903471  0.093063012
     5.365664814  0.000000000  5.365664814     0.092328882 -0.090558718  0.094041313

  length of vectors
     7.710540324  7.700248695  7.588195952     0.159895330  0.158824669  0.159903948


  POSITION                                       TOTAL-FORCE (eV/Angst) (ML)
 -----------------------------------------------------------------------------------
      3.17879      3.37262      3.36692         0.571170      1.015245      1.365336
      5.95563      3.49704      6.13978        -0.178855      0.564562     -0.015222
      3.14022      6.24746      5.95430        -0.333585      0.092332     -1.034239
      5.71782      6.37261      8.56335         0.666077     -0.786585      0.616390
      5.97364      6.14853      3.27608        -0.463469      1.075363      0.608804
      8.72108      6.13721      6.07149        -0.414299      0.241825      0.813042
      5.75046      8.93130      5.78415         0.344043      0.047158      1.040700
      8.41082      9.02083      8.60975        -0.663191      0.223730      0.286071
      9.78878     10.37874      9.94194         0.307445      0.083867     -0.860973
      7.07275     10.38767      7.17710         0.227085     -0.952676      0.017822
      9.87668      7.67886      7.43545         0.701515     -0.881829      0.087610
      7.30807      7.45800      4.82269        -0.637680      0.117336     -1.275045
      7.02430      7.69127     10.03436         0.896025     -0.565000     -0.281072
      4.34181      7.69344      7.26961         0.630122      0.063691     -0.518373
      7.30847      4.88341      7.50029        -0.621637      0.293363     -0.357103
      4.67963      4.88163      4.74378        -1.030768     -0.632381     -0.493749
 -----------------------------------------------------------------------------------
    total drift:                                0.000000      0.000000      0.000000


--------------------------------------------------------------------------------------------------------



  ML FREE ENERGIE OF THE ION-ELECTRON SYSTEM (eV)
  ---------------------------------------------------
  free  energy ML TOTEN  =       -88.02445930 eV

  ML energy  without entropy=      -88.02445930  ML energy(sigma->0) =      -88.02445930

      MLFF:  cpu time      0.0005: real time      0.0039
     LOOP+:  cpu time      0.0007: real time      0.0041
           RANDOM_SEED =         706023541             9600                0
   IONSTEP:  cpu time      0.0002: real time      0.0002

  ENERGY OF THE ELECTRON-ION-THERMOSTAT SYSTEM (eV)
  ---------------------------------------------------
% ion-electron   TOTEN  =       -88.024459  see above
  kinetic energy EKIN   =         0.723948
  kin. lattice  EKIN_LAT=         0.000000  (temperature  350.04 K)
  nose potential ES     =         0.000000
  nose kinetic   EPS    =         0.000000
  ---------------------------------------------------
  total energy   ETOTAL =       -87.300511 eV



--------------------------------------- Ionic step      100  -------------------------------------------



  ML FORCE on cell =-STRESS in cart. coord. units (eV/cell)
  Direction    XX          YY          ZZ          XY          YZ          ZX
  --------------------------------------------------------------------------------------
  Total:     -0.75456    -4.14398     0.65399    -1.74715    -0.10099    -1.22679
  in kB      -3.78484   -20.78600     3.28038    -8.76362    -0.50657    -6.15352
  external pressure =       -7.10 kB  Pullay stress =        0.00 kB

  kinetic pressure (ideal gas correction) =      2.44 kB
  total pressure  =     -4.66 kB
  Total+kin.    -1.186     -17.813       5.019      -9.614      -1.425      -5.412
  volume of cell :      319.42
      direct lattice vectors                 reciprocal lattice vectors
     5.362444775  5.540010018  0.070050826     0.092315612  0.092315612 -0.092315612
    -0.102691642  5.495517549  5.392825907    -0.093063012  0.088903471  0.093063012
     5.365664814  0.000000000  5.365664814     0.092328882 -0.090558718  0.094041313

  length of vectors
     7.710540324  7.700248695  7.588195952     0.159895330  0.158824669  0.159903948


  POSITION                                       TOTAL-FORCE (eV/Angst) (ML)
 -----------------------------------------------------------------------------------
      3.17705      3.37102      3.36797         0.578265      1.010982      1.339125
      5.95294      3.49614      6.13371        -0.190033      0.631751      0.043584
      3.13901      6.25021      5.94955        -0.372785      0.081991     -0.931967
      5.72183      6.36693      8.56619         0.583089     -0.694241      0.516888
      5.97580      6.14903      3.27479        -0.542735      1.088615      0.636301
      8.71751      6.14196      6.07013        -0.333389      0.134078      0.817405
      5.74924      8.93444      5.78129         0.387447      0.001481      1.070608
      8.41109      9.01671      8.60969        -0.686593      0.275814      0.307069
      9.79259     10.38097      9.94123         0.203893      0.067634     -0.857316
      7.06952     10.38863      7.17850         0.307378     -0.972703     -0.025989
      9.87234      7.67820      7.43136         0.776341     -0.858735      0.104693
      7.30810      7.45321      4.82539        -0.705920      0.221743     -1.334154
      7.02099      7.68595     10.03507         0.924629     -0.507438     -0.307146
      4.34260      7.69565      7.26642         0.652980      0.015009     -0.452551
      7.31045      4.88690      7.50136        -0.648170      0.201512     -0.397391
      4.67115      4.88763      4.74310        -0.934397     -0.697492     -0.529158
 -----------------------------------------------------------------------------------
    total drift:                               -0.000000      0.000000      0.000000


--------------------------------------------------------------------------------------------------------



  ML FREE ENERGIE OF THE ION-ELECTRON SYSTEM (eV)
  ---------------------------------------------------
  free  energy ML TOTEN  =       -88.03018975 eV

  ML energy  without entropy=      -88.03018975  ML energy(sigma->0) =      -88.03018975

      MLFF:  cpu time      0.0005: real time      0.0045
     LOOP+:  cpu time      0.0007: real time      0.0047
           RANDOM_SEED =         706023541             9696                0
   IONSTEP:  cpu time      0.0008: real time      0.0014

  ENERGY OF THE ELECTRON-ION-THERMOSTAT SYSTEM (eV)
  ---------------------------------------------------
% ion-electron   TOTEN  =       -88.030190  see above
  kinetic energy EKIN   =         0.732499
  kin. lattice  EKIN_LAT=         0.000000  (temperature  354.18 K)
  nose potential ES     =         0.000000
  nose kinetic   EPS    =         0.000000
  ---------------------------------------------------
  total energy   ETOTAL =       -87.297691 eV



