 vasp.6.4.2 20Jul23 (build Apr 16 2026 16:01:09) complex                        
  
 executed on             LinuxIFC date 2026.07.08  22:16:35
 running    8 mpi-ranks, on    1 nodes
 distrk:  each k-point on    8 cores,    1 groups
 distr:  one band on NCORE=   4 cores,    2 groups


--------------------------------------------------------------------------------------------------------


 INCAR:
   NSW = 100000
   PREC = Normal
   IVDW = 10
   RANDOM_SEED = 706023541                0                0
   NPAR = 2
   LWAVE = .FALSE.
   LCHARG = .FALSE.
   ISMEAR = -1
   SIGMA = 0.0258
   ISYM = 0
   ENCUT = 300
   EDIFF = 1e-6
   IBRION = 0
   POTIM = 1
   MDALGO = 3
   ISIF = 3
   LANGEVIN_GAMMA_L = 10
   PMASS = 10
   LANGEVIN_GAMMA = 1.0
   TEBEG = 300
   LREAL = .FALSE.
   ML_LMLFF = .TRUE.
   ML_MODE = run

 POTCAR:    PAW_PBE Si 05Jan2001                  
 POTCAR:    PAW_PBE Si 05Jan2001                  
   VRHFIN =Si: s2p2                                                                                 
   LEXCH  = PE                                                                                      
   EATOM  =   103.0669 eV,    7.5752 Ry                                                             
                                                                                                    
   TITEL  = PAW_PBE Si 05Jan2001                                                                    
   LULTRA =        F    use ultrasoft PP ?                                                          
   IUNSCR =        1    unscreen: 0-lin 1-nonlin 2-no                                               
   RPACOR =    1.500    partial core radius                                                         
   POMASS =   28.085; ZVAL   =    4.000    mass and valenz                                          
   RCORE  =    1.900    outmost cutoff radius                                                       
   RWIGS  =    2.480; RWIGS  =    1.312    wigner-seitz radius (au A)                               
   ENMAX  =  245.345; ENMIN  =  184.009 eV                                                          
   ICORE  =        2    local potential                                                             
   LCOR   =        T    correct aug charges                                                         
   LPAW   =        T    paw PP                                                                      
   EAUG   =  322.069                                                                                
   DEXC   =    0.000                                                                                
   RMAX   =    1.950    core radius for proj-oper                                                   
   RAUG   =    1.300    factor for augmentation sphere                                              
   RDEP   =    1.993    radius for radial grids                                                     
   RDEPT  =    1.837    core radius for aug-charge                                                  
                                                                                                    
   Atomic configuration                                                                             
    6 entries                                                                                       
     n  l   j            E        occ.                                                              
     1  0  0.50     -1785.8828   2.0000                                                             
     2  0  0.50      -139.4969   2.0000                                                             
     2  1  1.50       -95.5546   6.0000                                                             
     3  0  0.50       -10.8127   2.0000                                                             
     3  1  0.50        -4.0811   2.0000                                                             
     3  2  1.50        -4.0817   0.0000                                                             
   Description                                                                                      
     l       E           TYP  RCUT    TYP  RCUT                                                     
     0    -10.8127223     23  1.900                                                                 
     0     -7.6451159     23  1.900                                                                 
     1     -4.0811372     23  1.900                                                                 
     1      2.4879257     23  1.900                                                                 
     2     -4.0817478      7  1.900                                                                 
  local pseudopotential read in
  partial core-charges read in
  partial kinetic energy density read in
  atomic valenz-charges read in
  non local Contribution for L=           0  read in
    real space projection operators read in
  non local Contribution for L=           0  read in
    real space projection operators read in
  non local Contribution for L=           1  read in
    real space projection operators read in
  non local Contribution for L=           1  read in
    real space projection operators read in
    PAW grid and wavefunctions read in
 
   number of l-projection  operators is LMAX  =           4
   number of lm-projection operators is LMMAX =           8
 
  PAW_PBE Si 05Jan2001                  :
 energy of atom  1       EATOM= -103.0669
 kinetic energy error for atom=-1285.4608 (will be added to EATOM!!)
 
 
 POSCAR: fcc carbon
  positions in direct lattice
  No initial velocities read in

  MD-specific parameters
                MDALGO =   3
        LANGEVIN_GAMMA =     1.000
      LANGEVIN_GAMMA_L =    10.000
               LCNOISE =               F
                 CNEXP =     9.000   14.000
 exchange correlation table for  LEXCH =        8
   RHO(1)=    0.500       N(1)  =     2000
   RHO(2)=  100.500       N(2)  =     4000
 


--------------------------------------------------------------------------------------------------------


 ion  position               nearest neighbor table
   1  0.321  0.312  0.311-  16 2.31  12 2.35  14 2.36  15 2.40
   2  0.310  0.315  0.829-  15 2.23  16 2.32  11 2.33  13 2.36
   3  0.319  0.811  0.313-  14 2.27  10 2.34  13 2.43  16 2.46
   4  0.296  0.834  0.798-  14 2.30   9 2.33  15 2.40  13 2.46
   5  0.823  0.308  0.309-  11 2.27  12 2.30  16 2.44  10 2.46
   6  0.796  0.331  0.802-  15 2.30   9 2.32  11 2.38  12 2.46
   7  0.800  0.828  0.303-  14 2.27  10 2.33  12 2.38   9 2.42
   8  0.832  0.810  0.797-  10 2.25   9 2.28  13 2.35  11 2.44
   9  0.924  0.962  0.916-   8 2.28   6 2.32   4 2.33   7 2.42
  10  0.946  0.918  0.438-   8 2.25   7 2.33   3 2.34   5 2.46
  11  0.938  0.424  0.946-   5 2.27   2 2.33   6 2.38   8 2.44
  12  0.946  0.451  0.409-   5 2.30   1 2.35   7 2.38   6 2.46
  13  0.456  0.941  0.925-   8 2.35   2 2.36   3 2.43   4 2.46
  14  0.436  0.938  0.430-   3 2.27   7 2.27   4 2.30   1 2.36
  15  0.428  0.453  0.927-   2 2.23   6 2.30   4 2.40   1 2.40
  16  0.435  0.421  0.458-   1 2.31   2 2.32   5 2.44   3 2.46
 

IMPORTANT INFORMATION: All symmetrisations will be switched off!
NOSYMM: (Re-)initialisation of all symmetry stuff for point group C_1.


----------------------------------------------------------------------------------------

                                     Primitive cell                                     

  volume of cell :     319.4162

  direct lattice vectors                    reciprocal lattice vectors
     5.362444775  5.540010018  0.070050826     0.092315612  0.092315612 -0.092315612
    -0.102691642  5.495517549  5.392825907    -0.093063012  0.088903471  0.093063012
     5.365664814  0.000000000  5.365664814     0.092328882 -0.090558718  0.094041313

  length of vectors
     7.710540324  7.700248695  7.588195952     0.159895330  0.158824669  0.159903948

  position of ions in fractional coordinates (direct lattice)
     0.321201041  0.312285673  0.310745195
     0.309966870  0.314634863  0.828890250
     0.319036922  0.811163459  0.312691339
     0.296495680  0.834336180  0.798419963
     0.823330933  0.307805547  0.308846913
     0.796123400  0.330543646  0.801890718
     0.799635117  0.828218148  0.302640715
     0.832444904  0.810329251  0.797354367
     0.924182957  0.962247467  0.916073594
     0.945779975  0.917877799  0.438415548
     0.938083513  0.423976362  0.945955456
     0.946126091  0.450641972  0.408711677
     0.456154252  0.940915846  0.924661343
     0.436459992  0.938267255  0.430392610
     0.427950358  0.453016110  0.927406377
     0.434687907  0.420699917  0.458025578

  ion indices of the primitive-cell ions
   primitive index   ion index
                 1           1
                 2           2
                 3           3
                 4           4
                 5           5
                 6           6
                 7           7
                 8           8
                 9           9
                10          10
                11          11
                12          12
                13          13
                14          14
                15          15
                16          16

----------------------------------------------------------------------------------------

 
 
 KPOINTS: Monkhorst Pack                          

Automatic generation of k-mesh.
 Grid dimensions read from file:
 generate k-points for:    1    1    1

 Generating k-lattice:

  Cartesian coordinates                     Fractional coordinates (reciprocal lattice)
     0.092315612  0.092315612 -0.092315612     1.000000000 -0.000000000 -0.000000000
    -0.093063012  0.088903471  0.093063012     0.000000000  1.000000000  0.000000000
     0.092328882 -0.090558718  0.094041313     0.000000000 -0.000000000  1.000000000

  Length of vectors
     0.159895330  0.158824669  0.159903948

  Shift w.r.t. Gamma in fractional coordinates (k-lattice)
     0.000000000  0.000000000  0.000000000

 
 Subroutine IBZKPT returns following result:
 ===========================================
 
 Found      1 irreducible k-points:
 
 Following reciprocal coordinates:
            Coordinates               Weight
  0.000000  0.000000  0.000000      1.000000
 
 Following cartesian coordinates:
            Coordinates               Weight
  0.000000  0.000000  0.000000      1.000000
 


--------------------------------------------------------------------------------------------------------




 Dimension of arrays:
   k-points           NKPTS =      1   k-points in BZ     NKDIM =      1   number of bands    NBANDS=     42
   number of dos      NEDOS =    301   number of ions     NIONS =     16
   non local maximal  LDIM  =      4   non local SUM 2l+1 LMDIM =      8
   total plane-waves  NPLWV =      8
   max r-space proj   IRMAX =      1   max aug-charges    IRDMAX=    200
   dimension x,y,z NGX =     2 NGY =    2 NGZ =    2
   dimension x,y,z NGXF=     2 NGYF=    2 NGZF=    2
   support grid    NGXF=     2 NGYF=    2 NGZF=    2
   ions per type =              16
   NGX,Y,Z   is equivalent  to a cutoff of   0.43,  0.43,  0.44 a.u.
   NGXF,Y,Z  is equivalent  to a cutoff of   0.43,  0.43,  0.44 a.u.

 SYSTEM =  unknown system                          
 POSCAR =  fcc carbon                              

 Startparameter for this run:
   NWRITE =      2    write-flag & timer
   PREC   = normal    normal or accurate (medium, high low for compatibility)
   ISTART =      0    job   : 0-new  1-cont  2-samecut
   ICHARG =      2    charge: 1-file 2-atom 10-const
   ISPIN  =      1    spin polarized calculation?
   LNONCOLLINEAR =      F non collinear calculations
   LSORBIT =      F    spin-orbit coupling
   INIWAV =      1    electr: 0-lowe 1-rand  2-diag
   LASPH  =      F    aspherical Exc in radial PAW
 Electronic Relaxation 1
   ENCUT  =    1.0 eV   0.07 Ry    0.27 a.u.   0.63  0.63  0.62*2*pi/ulx,y,z
   ENINI  =    1.0     initial cutoff
   ENAUG  =  322.1 eV  augmentation charge cutoff
   NELM   =     60;   NELMIN=  2; NELMDL= -5     # of ELM steps 
   EDIFF  = 0.1E-05   stopping-criterion for ELM
   LREAL  =      F    real-space projection
   NLSPLINE    = F    spline interpolate recip. space projectors
   LCOMPAT=      F    compatible to vasp.4.4
   GGA_COMPAT  = T    GGA compatible to vasp.4.4-vasp.4.6
   LMAXPAW     = -100 max onsite density
   LMAXMIX     =    2 max onsite mixed and CHGCAR
   VOSKOWN=      0    Vosko Wilk Nusair interpolation
   ROPT   =    0.00000
 Ionic relaxation
   EDIFFG = 0.1E-04   stopping-criterion for IOM
   NSW    = 100000    number of steps for IOM
   NBLOCK =      1;   KBLOCK = 100000    inner block; outer block 
   IBRION =      0    ionic relax: 0-MD 1-quasi-New 2-CG
   NFREE  =      0    steps in history (QN), initial steepest desc. (CG)
   ISIF   =      3    stress and relaxation
   IWAVPR =     11    prediction:  0-non 1-charg 2-wave 3-comb
   ISYM   =      0    0-nonsym 1-usesym 2-fastsym
   LCORR  =      T    Harris-Foulkes like correction to forces

   POTIM  = 1.0000    time-step for ionic-motion
   TEIN   =  300.0    initial temperature
   TEBEG  =  300.0;   TEEND  = 300.0 temperature during run
   SMASS  =  -3.00    Nose mass-parameter (am)
   estimated Nose-frequenzy (Omega)   =  0.10E-29 period in steps = 0.63E+46 mass=  -0.136E-26a.u.
   SCALEE = 1.0000    scale energy and forces
   NPACO  =    256;   APACO  = 10.0  distance and # of slots for P.C.
   PSTRESS=    0.0 pullay stress

  Mass of Ions in am
   POMASS =  28.09
  Ionic Valenz
   ZVAL   =   4.00
  Atomic Wigner-Seitz radii
   RWIGS  =  -1.00
  virtual crystal weights 
   VCA    =   1.00
   NELECT =      64.0000    total number of electrons
   NUPDOWN=      -1.0000    fix difference up-down

 DOS related values:
   EMIN   =  10.00;   EMAX   =-10.00  energy-range for DOS
   EFERMI =   0.00;   METHOD = LEGACY      
   ISMEAR =    -1;   SIGMA  =   0.03  broadening in eV -4-tet -1-fermi 0-gaus

 Electronic relaxation 2 (details)
   IALGO  =     38    algorithm
   LDIAG  =      T    sub-space diagonalisation (order eigenvalues)
   LSUBROT=      F    optimize rotation matrix (better conditioning)
   TURBO    =      0    0=normal 1=particle mesh
   IRESTART =      0    0=no restart 2=restart with 2 vectors
   NREBOOT  =      0    no. of reboots
   NMIN     =      0    reboot dimension
   EREF     =   0.00    reference energy to select bands
   IMIX   =      4    mixing-type and parameters
     AMIX     =   0.40;   BMIX     =  1.00
     AMIX_MAG =   1.60;   BMIX_MAG =  1.00
     AMIN     =   0.10
     WC   =   100.;   INIMIX=   1;  MIXPRE=   1;  MAXMIX= -45

 Intra band minimization:
   WEIMIN = 0.0010     energy-eigenvalue tresh-hold
   EBREAK =  0.60E-08  absolut break condition
   DEPER  =   0.30     relativ break condition  

   TIME   =   0.40     timestep for ELM

  volume/ion in A,a.u.               =      19.96       134.72
  Fermi-wavevector in a.u.,A,eV,Ry     =   0.957964  1.810289 12.485997  0.917695
  Thomas-Fermi vector in A             =   2.087029
 
 Write flags
   LWAVE        =      F    write WAVECAR
   LDOWNSAMPLE  =      F    k-point downsampling of WAVECAR
   LCHARG       =      F    write CHGCAR
   LVTOT        =      F    write LOCPOT, total local potential
   LVHAR        =      F    write LOCPOT, Hartree potential only
   LELF         =      F    write electronic localiz. function (ELF)
   LORBIT       =      0    0 simple, 1 ext, 2 COOP (PROOUT), +10 PAW based schemes


 Dipole corrections
   LMONO  =      F    monopole corrections only (constant potential shift)
   LDIPOL =      F    correct potential (dipole corrections)
   IDIPOL =      0    1-x, 2-y, 3-z, 4-all directions 
   EPSILON=  1.0000000 bulk dielectric constant

 Exchange correlation treatment:
   GGA     =    --    GGA type
   LEXCH   =     8    internal setting for exchange type
   LIBXC   =     F    Libxc                    
   VOSKOWN =     0    Vosko Wilk Nusair interpolation
   LHFCALC =     F    Hartree Fock is set to
   LHFONE  =     F    Hartree Fock one center treatment
   AEXX    =    0.0000 exact exchange contribution

 Linear response parameters
   LEPSILON=     F    determine dielectric tensor
   LRPA    =     F    only Hartree local field effects (RPA)
   LNABLA  =     F    use nabla operator in PAW spheres
   LVEL    =     F    velocity operator in full k-point grid
   CSHIFT  =0.1000    complex shift for real part using Kramers Kronig
   OMEGAMAX=  -1.0    maximum frequency
   DEG_THRESHOLD= 0.2000000E-02 threshold for treating states as degnerate
   RTIME   =   -0.100 relaxation time in fs
  (WPLASMAI=    0.000 imaginary part of plasma frequency in eV, 0.658/RTIME)
   DFIELD  = 0.0000000 0.0000000 0.0000000 field for delta impulse in time
 
  Optional k-point grid parameters
   LKPOINTS_OPT  =     F    use optional k-point grid
   KPOINTS_OPT_MODE=     1    mode for optional k-point grid
 
 Orbital magnetization related:
   ORBITALMAG=     F  switch on orbital magnetization
   LCHIMAG   =     F  perturbation theory with respect to B field
   DQ        =  0.001000  dq finite difference perturbation B field
   LLRAUG    =     F  two centre corrections for induced B field
   LBONE     =     F  B-component reconstruction in AE one-centre
   LVGVCALC  =     T  calculate vGv susceptibility
   LVGVAPPL  =     F  apply vGv susceptibility instead of pGv for G=0

 Random number generation:
   RANDOM_GENERATOR = DEFAULT
   PCG_SEED         = not used


--------------------------------------------------------------------------------------------------------


 molecular dynamics for ions
   using a microcanonical ensemble
 charge density and potential will be updated during run
 non-spin polarized calculation
 Variant of blocked Davidson
 Davidson routine will perform the subspace rotation
 perform sub-space diagonalisation
    after iterative eigenvector-optimisation
 modified Broyden-mixing scheme, WC =      100.0
 initial mixing is a Kerker type mixing with AMIX =  0.4000 and BMIX =      1.0000
 Hartree-type preconditioning will be used
 using additional bands           10
 reciprocal scheme for non local part
 use partial core corrections
 calculate Harris-corrections to forces 
   (improved forces if not selfconsistent)
 use gradient corrections 
 use of overlap-Matrix (Vanderbilt PP)
 Fermi-smearing in eV        SIGMA  =   0.03


--------------------------------------------------------------------------------------------------------


  energy-cutoff  :        1.00
  volume of cell :      319.42
      direct lattice vectors                 reciprocal lattice vectors
     5.362444775  5.540010018  0.070050826     0.092315612  0.092315612 -0.092315612
    -0.102691642  5.495517549  5.392825907    -0.093063012  0.088903471  0.093063012
     5.365664814  0.000000000  5.365664814     0.092328882 -0.090558718  0.094041313

  length of vectors
     7.710540324  7.700248695  7.588195952     0.159895330  0.158824669  0.159903948


 
 k-points in units of 2pi/SCALE and weight: Monkhorst Pack                          
   0.00000000  0.00000000  0.00000000       1.000
 
 k-points in reciprocal lattice and weights: Monkhorst Pack                          
   0.00000000  0.00000000  0.00000000       1.000
 
 position of ions in fractional coordinates (direct lattice) 
   0.32120104  0.31228567  0.31074519
   0.30996687  0.31463486  0.82889025
   0.31903692  0.81116346  0.31269134
   0.29649568  0.83433618  0.79841996
   0.82333093  0.30780555  0.30884691
   0.79612340  0.33054365  0.80189072
   0.79963512  0.82821815  0.30264071
   0.83244490  0.81032925  0.79735437
   0.92418296  0.96224747  0.91607359
   0.94577998  0.91787780  0.43841555
   0.93808351  0.42397636  0.94595546
   0.94612609  0.45064197  0.40871168
   0.45615425  0.94091585  0.92466134
   0.43645999  0.93826725  0.43039261
   0.42795036  0.45301611  0.92740638
   0.43468791  0.42069992  0.45802558
 
 position of ions in cartesian coordinates  (Angst):
   3.35770828  3.49562838  3.37395722
   6.07741710  3.44630098  6.16603172
   3.30531508  6.22523077  6.07460903
   5.78831626  6.22769816  8.80425344
   6.04062662  6.25281240  3.37478575
   8.53790050  6.22704002  6.14101025
   5.82681671  8.98147392  6.14632002
   8.65906206  9.06493173  8.70661430
   9.77240915 10.40803068 10.16931670
   7.32982539 10.28384409  7.36859872
  10.06256211  7.52696160  7.42782414
   7.22028161  7.71805889  4.68952048
   7.31090062  7.69791867 10.06757216
   4.55348288  7.57425689  7.39982883
   7.22449095  4.86040725  7.44916706
   4.74539926  4.72013914  4.75682339
 


--------------------------------------------------------------------------------------------------------


 k-point   1 :   0.0000 0.0000 0.0000  plane waves:       1

 maximum and minimum number of plane-waves per node :         1        0

 maximum number of plane-waves:         1
 maximum index in each direction: 
   IXMAX=    0   IYMAX=    0   IZMAX=    0
   IXMIN=    0   IYMIN=    0   IZMIN=    0



--------------------------------------- Ionic step        1  -------------------------------------------



  ML FORCE on cell =-STRESS in cart. coord. units (eV/cell)
  Direction    XX          YY          ZZ          XY          YZ          ZX
  --------------------------------------------------------------------------------------
  Total:      0.23464    -2.80022     3.27965     3.82293    -0.73750     3.10857
  in kB       1.17696   -14.04575    16.45058    19.17567    -3.69924    15.59245
  external pressure =        1.19 kB  Pullay stress =        0.00 kB

  kinetic pressure (ideal gas correction) =      1.95 kB
  total pressure  =      3.14 kB
  Total+kin.     2.334     -11.480      18.564      18.461      -3.363      15.618
  volume of cell :      319.42
      direct lattice vectors                 reciprocal lattice vectors
     5.362444775  5.540010018  0.070050826     0.092315612  0.092315612 -0.092315612
    -0.102691642  5.495517549  5.392825907    -0.093063012  0.088903471  0.093063012
     5.365664814  0.000000000  5.365664814     0.092328882 -0.090558718  0.094041313

  length of vectors
     7.710540324  7.700248695  7.588195952     0.159895330  0.158824669  0.159903948


  POSITION                                       TOTAL-FORCE (eV/Angst) (ML)
 -----------------------------------------------------------------------------------
      3.35771      3.49563      3.37396        -0.625537     -0.065852     -0.240409
      6.07742      3.44630      6.16603        -0.495945     -0.898728     -1.097104
      3.30532      6.22523      6.07461        -0.378832     -0.627664     -1.482866
      5.78832      6.22770      8.80425         1.226733      0.244247      0.334428
      6.04063      6.25281      3.37479         0.202491     -1.587989      0.187847
      8.53790      6.22704      6.14101        -0.138899      1.047018     -0.579419
      5.82682      8.98147      6.14632         0.381379      0.517803     -1.137731
      8.65906      9.06493      8.70661         0.328709     -1.574274      0.094843
      9.77241     10.40803     10.16932         0.838516     -0.078549      0.599473
      7.32983     10.28384      7.36860        -0.996235      1.372340      0.049244
     10.06256      7.52696      7.42782        -1.038513      0.605209     -0.050970
      7.22028      7.71806      4.68952         0.658762     -0.296509      0.946535
      7.31090      7.69792     10.06757        -0.157908     -0.986660      0.110269
      4.55348      7.57426      7.39983        -0.246907      0.206700      0.780427
      7.22449      4.86041      7.44917         0.625627      0.593258      1.424341
      4.74540      4.72014      4.75682        -0.183441      1.529651      0.061092
 -----------------------------------------------------------------------------------
    total drift:                                0.000000      0.000000      0.000000


--------------------------------------------------------------------------------------------------------



  ML FREE ENERGIE OF THE ION-ELECTRON SYSTEM (eV)
  ---------------------------------------------------
  free  energy ML TOTEN  =       -87.98535450 eV

  ML energy  without entropy=      -87.98535450  ML energy(sigma->0) =      -87.98535450

      MLFF:  cpu time      0.0005: real time      0.0005
           RANDOM_SEED =         706023541                0                0
           RANDOM_SEED =         706023541              228                0
   IONSTEP:  cpu time      0.0005: real time      0.0026

  ENERGY OF THE ELECTRON-ION-THERMOSTAT SYSTEM (eV)
  ---------------------------------------------------
% ion-electron   TOTEN  =       -87.985354  see above
  kinetic energy EKIN   =         0.623527
  kin. lattice  EKIN_LAT=         0.091673  (temperature  291.21 K)
  nose potential ES     =         0.000000
  nose kinetic   EPS    =         0.000000
  ---------------------------------------------------
  total energy   ETOTAL =       -87.270155 eV



--------------------------------------- Ionic step        2  -------------------------------------------



  ML FORCE on cell =-STRESS in cart. coord. units (eV/cell)
  Direction    XX          YY          ZZ          XY          YZ          ZX
  --------------------------------------------------------------------------------------
  Total:     -0.05084    -2.65144     3.25240     3.86831    -0.69607     3.16395
  in kB      -0.25495   -13.29551    16.30899    19.39747    -3.49039    15.86548
  external pressure =        0.92 kB  Pullay stress =        0.00 kB

  kinetic pressure (ideal gas correction) =      2.10 kB
  total pressure  =      3.02 kB
  Total+kin.     1.410     -11.507      19.164      19.262      -3.738      16.994
  volume of cell :      319.51
      direct lattice vectors                 reciprocal lattice vectors
     5.370211320  5.531950163  0.068845897     0.092307844  0.092307844 -0.092307844
    -0.107517798  5.494507347  5.386989549    -0.092936884  0.089063055  0.092936884
     5.367807727  0.000000000  5.367807727     0.092085080 -0.090565234  0.094210713

  length of vectors
     7.710147987  7.695506966  7.591226487     0.159881875  0.158766358  0.159866764


  POSITION                                       TOTAL-FORCE (eV/Angst) (ML)
 -----------------------------------------------------------------------------------
      3.35507      3.49031      3.36895        -0.523975      0.009954     -0.158978
      6.08089      3.44209      6.17057        -0.491225     -0.913094     -1.141214
      3.30249      6.22322      6.06999        -0.372309     -0.654022     -1.549352
      5.78591      6.23251      8.79861         1.241553      0.120675      0.382547
      6.04658      6.24522      3.37326         0.206281     -1.572319      0.176234
      8.54746      6.21756      6.13848        -0.180616      1.081284     -0.561920
      5.83003      8.97180      6.13552         0.326561      0.504570     -1.080861
      8.66181      9.05965      8.69982         0.288735     -1.558498      0.068747
      9.77440     10.39998     10.16674         0.906975     -0.086619      0.500248
      7.33069     10.27792      7.35431        -0.973013      1.319549      0.141370
     10.06838      7.51629      7.42490        -1.020263      0.621081     -0.000490
      7.22837      7.71020      4.68891         0.654044     -0.335339      0.900126
      7.31023      7.69304     10.06188        -0.145732     -0.937428      0.120825
      4.54987      7.56645      7.39365        -0.225665      0.318355      0.747330
      7.22967      4.85820      7.44657         0.588654      0.615133      1.469454
      4.75338      4.71730      4.75912        -0.280006      1.466718     -0.014065
 -----------------------------------------------------------------------------------
    total drift:                               -0.000000      0.000000     -0.000000


--------------------------------------------------------------------------------------------------------



  ML FREE ENERGIE OF THE ION-ELECTRON SYSTEM (eV)
  ---------------------------------------------------
  free  energy ML TOTEN  =       -87.98781154 eV

  ML energy  without entropy=      -87.98781154  ML energy(sigma->0) =      -87.98781154

      MLFF:  cpu time      0.0006: real time      0.0023
     LOOP+:  cpu time      0.0016: real time      0.0082
           RANDOM_SEED =         706023541              342                0
   IONSTEP:  cpu time      0.0002: real time      0.0002

  ENERGY OF THE ELECTRON-ION-THERMOSTAT SYSTEM (eV)
  ---------------------------------------------------
% ion-electron   TOTEN  =       -87.987812  see above
  kinetic energy EKIN   =         0.627267
  kin. lattice  EKIN_LAT=         0.088346  (temperature  291.38 K)
  nose potential ES     =         0.000000
  nose kinetic   EPS    =         0.000000
  ---------------------------------------------------
  total energy   ETOTAL =       -87.272199 eV



--------------------------------------- Ionic step        3  -------------------------------------------



  ML FORCE on cell =-STRESS in cart. coord. units (eV/cell)
  Direction    XX          YY          ZZ          XY          YZ          ZX
  --------------------------------------------------------------------------------------
  Total:     -0.30737    -2.46333     3.21035     3.83864    -0.59313     3.18495
  in kB      -1.54108   -12.35070    16.09615    19.24628    -2.97387    15.96880
  external pressure =        0.73 kB  Pullay stress =        0.00 kB

  kinetic pressure (ideal gas correction) =      2.10 kB
  total pressure  =      2.83 kB
  Total+kin.     0.078     -10.527      18.955      19.241      -3.250      17.103
  volume of cell :      319.55
      direct lattice vectors                 reciprocal lattice vectors
     5.378088817  5.523830327  0.066325124     0.092288434  0.092288434 -0.092288434
    -0.110513399  5.491578290  5.381064891    -0.092830444  0.089266569  0.092830444
     5.370211726  0.000000000  5.370211726     0.091878239 -0.090586790  0.094334158

  length of vectors
     7.709795058  7.689311067  7.594626256     0.159848256  0.158756111  0.159832759


  POSITION                                       TOTAL-FORCE (eV/Angst) (ML)
 -----------------------------------------------------------------------------------
      3.35295      3.48432      3.36348        -0.427077      0.084321     -0.073108
      6.08493      3.43666      6.17463        -0.484163     -0.911611     -1.176889
      3.30128      6.21948      6.06466        -0.365225     -0.678137     -1.608304
      5.78560      6.23585      8.79262         1.250045     -0.002639      0.434243
      6.05320      6.23645      3.37062         0.206563     -1.544423      0.164473
      8.55779      6.20786      6.13489        -0.226574      1.106436     -0.536996
      5.83502      8.96062      6.12321         0.267331      0.490795     -1.012932
      8.66649      9.05226      8.69214         0.242625     -1.534282      0.043416
      9.77895     10.38990     10.16300         0.971809     -0.093643      0.397100
      7.33329     10.27046      7.33888        -0.943696      1.259729      0.231998
     10.07480      7.50498      7.42092        -0.991844      0.631049      0.050994
      7.23749      7.70124      4.68752         0.651413     -0.375542      0.841740
      7.31165      7.68583     10.05564        -0.130661     -0.884657      0.129713
      4.54818      7.55697      7.38703        -0.201751      0.428197      0.704918
      7.23604      4.85527      7.44429         0.550846      0.628779      1.493085
      4.76212      4.71416      4.76059        -0.369642      1.395628     -0.083451
 -----------------------------------------------------------------------------------
    total drift:                                0.000000     -0.000000     -0.000000


--------------------------------------------------------------------------------------------------------



  ML FREE ENERGIE OF THE ION-ELECTRON SYSTEM (eV)
  ---------------------------------------------------
  free  energy ML TOTEN  =       -87.99599738 eV

  ML energy  without entropy=      -87.99599738  ML energy(sigma->0) =      -87.99599738

      MLFF:  cpu time      0.0006: real time      0.4239
     LOOP+:  cpu time      0.0008: real time      0.4241
           RANDOM_SEED =         706023541              456                0
   IONSTEP:  cpu time      0.0003: real time      0.0003

  ENERGY OF THE ELECTRON-ION-THERMOSTAT SYSTEM (eV)
  ---------------------------------------------------
% ion-electron   TOTEN  =       -87.995997  see above
  kinetic energy EKIN   =         0.633064
  kin. lattice  EKIN_LAT=         0.086540  (temperature  293.00 K)
  nose potential ES     =         0.000000
  nose kinetic   EPS    =         0.000000
  ---------------------------------------------------
  total energy   ETOTAL =       -87.276393 eV



--------------------------------------- Ionic step        4  -------------------------------------------



  ML FORCE on cell =-STRESS in cart. coord. units (eV/cell)
  Direction    XX          YY          ZZ          XY          YZ          ZX
  --------------------------------------------------------------------------------------
  Total:     -0.54871    -2.27035     3.16106     3.73167    -0.51965     3.18889
  in kB      -2.75111   -11.38296    15.84875    18.70965    -2.60537    15.98825
  external pressure =        0.57 kB  Pullay stress =        0.00 kB

  kinetic pressure (ideal gas correction) =      2.14 kB
  total pressure  =      2.71 kB
  Total+kin.    -1.084      -9.486      18.715      18.781      -2.956      17.201
  volume of cell :      319.56
      direct lattice vectors                 reciprocal lattice vectors
     5.386769580  5.515490645  0.064424293     0.092269343  0.092269343 -0.092269343
    -0.112077274  5.488303899  5.376226625    -0.092726406  0.089479247  0.092726406
     5.372394856  0.000000000  5.372394856     0.091686073 -0.090649536  0.094450655

  length of vectors
     7.709868615  7.683609420  7.597713667     0.159815190  0.158754240  0.159826783


  POSITION                                       TOTAL-FORCE (eV/Angst) (ML)
 -----------------------------------------------------------------------------------
      3.35139      3.47819      3.35830        -0.330763      0.155821      0.018825
      6.08941      3.43064      6.17867        -0.472369     -0.896568     -1.199165
      3.30109      6.21526      6.05975        -0.349761     -0.695230     -1.652713
      5.78700      6.23886      8.78760         1.253601     -0.127652      0.490113
      6.06100      6.22686      3.36883         0.204356     -1.503660      0.155033
      8.56913      6.19814      6.13177        -0.275633      1.124454     -0.505037
      5.84170      8.94939      6.11202         0.210601      0.472576     -0.936455
      8.67307      9.04374      8.68561         0.192677     -1.499347      0.020512
      9.78565     10.37910     10.16081         1.030698     -0.101748      0.285597
      7.33744     10.26317      7.32518        -0.909869      1.189293      0.321113
     10.08195      7.49339      7.41764        -0.955307      0.637082      0.103730
      7.24820      7.69176      4.68747         0.643852     -0.415330      0.775363
      7.31435      7.67783     10.05062        -0.112778     -0.827581      0.133285
      4.54804      7.54723      7.38204        -0.181467      0.533205      0.647141
      7.24325      4.85223      7.44330         0.508258      0.635068      1.495657
      4.77142      4.71126      4.76280        -0.456095      1.319617     -0.152999
 -----------------------------------------------------------------------------------
    total drift:                                0.000000      0.000000      0.000000


--------------------------------------------------------------------------------------------------------



  ML FREE ENERGIE OF THE ION-ELECTRON SYSTEM (eV)
  ---------------------------------------------------
  free  energy ML TOTEN  =       -88.00927877 eV

  ML energy  without entropy=      -88.00927877  ML energy(sigma->0) =      -88.00927877

      MLFF:  cpu time      0.0007: real time      0.0133
     LOOP+:  cpu time      0.0010: real time      0.0136
           RANDOM_SEED =         706023541              570                0
   IONSTEP:  cpu time      0.0003: real time      0.0003

  ENERGY OF THE ELECTRON-ION-THERMOSTAT SYSTEM (eV)
  ---------------------------------------------------
% ion-electron   TOTEN  =       -88.009279  see above
  kinetic energy EKIN   =         0.644974
  kin. lattice  EKIN_LAT=         0.083253  (temperature  296.52 K)
  nose potential ES     =         0.000000
  nose kinetic   EPS    =         0.000000
  ---------------------------------------------------
  total energy   ETOTAL =       -87.281051 eV



--------------------------------------- Ionic step        5  -------------------------------------------



  ML FORCE on cell =-STRESS in cart. coord. units (eV/cell)
  Direction    XX          YY          ZZ          XY          YZ          ZX
  --------------------------------------------------------------------------------------
  Total:     -0.77813    -2.05120     3.10087     3.57934    -0.42013     3.13358
  in kB      -3.90166   -10.28503    15.54827    17.94738    -2.10662    15.71230
  external pressure =        0.45 kB  Pullay stress =        0.00 kB

  kinetic pressure (ideal gas correction) =      2.18 kB
  total pressure  =      2.63 kB
  Total+kin.    -2.229      -8.330      18.451      18.056      -2.508      16.955
  volume of cell :      319.53
      direct lattice vectors                 reciprocal lattice vectors
     5.395497318  5.506890414  0.062275729     0.092249969  0.092249969 -0.092249969
    -0.112515749  5.483864275  5.371348527    -0.092637317  0.089715847  0.092637317
     5.375161905  0.000000000  5.375161905     0.091502803 -0.090720991  0.094538105

  length of vectors
     7.709806198  7.677031469  7.601626866     0.159781634  0.158783746  0.159814000


  POSITION                                       TOTAL-FORCE (eV/Angst) (ML)
 -----------------------------------------------------------------------------------
      3.35042      3.47172      3.35329        -0.240465      0.227677      0.112562
      6.09458      3.42386      6.18264        -0.456669     -0.868886     -1.209170
      3.30193      6.20976      6.05447        -0.329886     -0.702197     -1.685133
      5.79016      6.24074      8.78298         1.250629     -0.248682      0.546428
      6.06929      6.21625      3.36710         0.200257     -1.453599      0.145407
      8.58130      6.18826      6.12885        -0.325400      1.137669     -0.466556
      5.84968      8.93708      6.10056         0.151780      0.453454     -0.854405
      8.68089      9.03359      8.67947         0.142506     -1.452265     -0.003718
      9.79432     10.36674     10.15913         1.085314     -0.112323      0.168450
      7.34258     10.25506      7.31147        -0.870703      1.108751      0.412106
     10.09009      7.48129      7.41491        -0.915879      0.638827      0.155272
      7.25997      7.68116      4.68753         0.635603     -0.453742      0.704031
      7.31874      7.66845     10.04606        -0.094475     -0.772335      0.134325
      4.54910      7.53664      7.37756        -0.159663      0.628088      0.579725
      7.25155      4.84878      7.44322         0.464521      0.632416      1.483267
      4.78124      4.70831      4.76550        -0.537470      1.237148     -0.222592
 -----------------------------------------------------------------------------------
    total drift:                                0.000000      0.000000      0.000000


--------------------------------------------------------------------------------------------------------



  ML FREE ENERGIE OF THE ION-ELECTRON SYSTEM (eV)
  ---------------------------------------------------
  free  energy ML TOTEN  =       -88.02625827 eV

  ML energy  without entropy=      -88.02625827  ML energy(sigma->0) =      -88.02625827

      MLFF:  cpu time      0.0007: real time      0.0071
     LOOP+:  cpu time      0.0011: real time      0.0074
           RANDOM_SEED =         706023541              684                0
   IONSTEP:  cpu time      0.0004: real time      0.0004

  ENERGY OF THE ELECTRON-ION-THERMOSTAT SYSTEM (eV)
  ---------------------------------------------------
% ion-electron   TOTEN  =       -88.026258  see above
  kinetic energy EKIN   =         0.661170
  kin. lattice  EKIN_LAT=         0.092901  (temperature  307.04 K)
  nose potential ES     =         0.000000
  nose kinetic   EPS    =         0.000000
  ---------------------------------------------------
  total energy   ETOTAL =       -87.272188 eV



--------------------------------------- Ionic step        6  -------------------------------------------



  ML FORCE on cell =-STRESS in cart. coord. units (eV/cell)
  Direction    XX          YY          ZZ          XY          YZ          ZX
  --------------------------------------------------------------------------------------
  Total:     -1.11281    -1.91343     2.92928     3.42310    -0.27630     3.09036
  in kB      -5.57748    -9.59026    14.68184    17.15687    -1.38484    15.48917
  external pressure =       -0.16 kB  Pullay stress =        0.00 kB

  kinetic pressure (ideal gas correction) =      2.25 kB
  total pressure  =      2.09 kB
  Total+kin.    -3.832      -7.527      17.626      17.345      -1.806      16.749
  volume of cell :      319.66
      direct lattice vectors                 reciprocal lattice vectors
     5.405002749  5.498331936  0.058033409     0.092205829  0.092205829 -0.092205829
    -0.113629979  5.479951399  5.366321419    -0.092515101  0.089968269  0.092515101
     5.378652606  0.000000000  5.378652606     0.091308137 -0.090756869  0.094612032

  length of vectors
     7.710322735  7.670735602  7.606563463     0.159705181  0.158784059  0.159766773


  POSITION                                       TOTAL-FORCE (eV/Angst) (ML)
 -----------------------------------------------------------------------------------
      3.34956      3.46554      3.34778        -0.154337      0.292918      0.204786
      6.10016      3.41699      6.18612        -0.438173     -0.833159     -1.210557
      3.30250      6.20458      6.04795        -0.305764     -0.706297     -1.707159
      5.79385      6.24303      8.77827         1.240462     -0.367197      0.597654
      6.07832      6.20519      3.36396         0.189385     -1.390099      0.128692
      8.59435      6.17887      6.12453        -0.377061      1.141744     -0.425188
      5.85810      8.92532      6.08737         0.089138      0.430848     -0.766366
      8.68930      9.02347      8.67193         0.091850     -1.396673     -0.024398
      9.80421     10.35487     10.15619         1.132902     -0.123314      0.048886
      7.34816     10.24790      7.29600        -0.828040      1.022836      0.502836
     10.09887      7.46973      7.41088        -0.863783      0.635117      0.209984
      7.27239      7.67082      4.68594         0.629144     -0.490624      0.629048
      7.32358      7.65936     10.04111        -0.076348     -0.712043      0.134855
      4.54990      7.52670      7.37251        -0.133801      0.719249      0.508491
      7.26075      4.84573      7.44340         0.418275      0.626074      1.454823
      4.79144      4.70599      4.76745        -0.613848      1.150620     -0.286388
 -----------------------------------------------------------------------------------
    total drift:                                0.000000      0.000000     -0.000000


--------------------------------------------------------------------------------------------------------



  ML FREE ENERGIE OF THE ION-ELECTRON SYSTEM (eV)
  ---------------------------------------------------
  free  energy ML TOTEN  =       -88.04428661 eV

  ML energy  without entropy=      -88.04428661  ML energy(sigma->0) =      -88.04428661

      MLFF:  cpu time      0.0007: real time      0.0071
     LOOP+:  cpu time      0.0010: real time      0.0074
           RANDOM_SEED =         706023541              798                0
   IONSTEP:  cpu time      0.0002: real time      0.0002

  ENERGY OF THE ELECTRON-ION-THERMOSTAT SYSTEM (eV)
  ---------------------------------------------------
% ion-electron   TOTEN  =       -88.044287  see above
  kinetic energy EKIN   =         0.673156
  kin. lattice  EKIN_LAT=         0.101630  (temperature  315.47 K)
  nose potential ES     =         0.000000
  nose kinetic   EPS    =         0.000000
  ---------------------------------------------------
  total energy   ETOTAL =       -87.269500 eV



--------------------------------------- Ionic step        7  -------------------------------------------



  ML FORCE on cell =-STRESS in cart. coord. units (eV/cell)
  Direction    XX          YY          ZZ          XY          YZ          ZX
  --------------------------------------------------------------------------------------
  Total:     -1.46585    -1.83282     2.71779     3.26570    -0.06246     3.03138
  in kB      -7.34274    -9.18098    13.61398    16.35855    -0.31286    15.18482
  external pressure =       -0.97 kB  Pullay stress =        0.00 kB

  kinetic pressure (ideal gas correction) =      2.26 kB
  total pressure  =      1.29 kB
  Total+kin.    -5.551      -7.143      16.554      16.583      -0.750      16.497
  volume of cell :      319.85
      direct lattice vectors                 reciprocal lattice vectors
     5.413204460  5.491287843  0.052496158     0.092148945  0.092148945 -0.092148945
    -0.115533010  5.476073074  5.360540064    -0.092404973  0.090207638  0.092404973
     5.382236070  0.000000000  5.382236070     0.091133701 -0.090742791  0.094662683

  length of vectors
     7.711016830  7.663948980  7.611631246     0.159606655  0.158791612  0.159689164


  POSITION                                       TOTAL-FORCE (eV/Angst) (ML)
 -----------------------------------------------------------------------------------
      3.34794      3.45998      3.34188        -0.075968      0.352879      0.292628
      6.10497      3.41017      6.18839        -0.418370     -0.786455     -1.201611
      3.30165      6.19972      6.03998        -0.276941     -0.706059     -1.717249
      5.79688      6.24541      8.77265         1.221339     -0.475808      0.642128
      6.08582      6.19509      3.35957         0.174305     -1.318433      0.109670
      8.60603      6.17126      6.11898        -0.432806      1.134402     -0.381821
      5.86493      8.91518      6.07241         0.020858      0.404062     -0.675880
      8.69621      9.01427      8.66291         0.034916     -1.335211     -0.047250
      9.81253     10.34453     10.15132         1.175717     -0.134695     -0.066590
      7.35147     10.24239      7.27877        -0.777574      0.934462      0.596467
     10.10572      7.45990      7.40524        -0.800139      0.628341      0.269288
      7.28335      7.66169      4.68324         0.622398     -0.524841      0.547808
      7.32717      7.65058     10.03508        -0.054713     -0.649550      0.131329
      4.54935      7.51776      7.36641        -0.105511      0.801246      0.434820
      7.26892      4.84358      7.44324         0.374636      0.611901      1.412189
      4.80039      4.70451      4.76865        -0.682147      1.063760     -0.345926
 -----------------------------------------------------------------------------------
    total drift:                                0.000000      0.000000     -0.000000


--------------------------------------------------------------------------------------------------------



  ML FREE ENERGIE OF THE ION-ELECTRON SYSTEM (eV)
  ---------------------------------------------------
  free  energy ML TOTEN  =       -88.06317453 eV

  ML energy  without entropy=      -88.06317453  ML energy(sigma->0) =      -88.06317453

      MLFF:  cpu time      0.0007: real time      0.0065
     LOOP+:  cpu time      0.0009: real time      0.0067
           RANDOM_SEED =         706023541              912                0
   IONSTEP:  cpu time      0.0002: real time      0.0002

  ENERGY OF THE ELECTRON-ION-THERMOSTAT SYSTEM (eV)
  ---------------------------------------------------
% ion-electron   TOTEN  =       -88.063175  see above
  kinetic energy EKIN   =         0.681169
  kin. lattice  EKIN_LAT=         0.103936  (temperature  319.67 K)
  nose potential ES     =         0.000000
  nose kinetic   EPS    =         0.000000
  ---------------------------------------------------
  total energy   ETOTAL =       -87.278069 eV



--------------------------------------- Ionic step        8  -------------------------------------------



  ML FORCE on cell =-STRESS in cart. coord. units (eV/cell)
  Direction    XX          YY          ZZ          XY          YZ          ZX
  --------------------------------------------------------------------------------------
  Total:     -1.77838    -1.70548     2.55033     3.05356     0.12270     2.93942
  in kB      -8.90568    -8.54065    12.77143    15.29151     0.61444    14.71990
  external pressure =       -1.56 kB  Pullay stress =        0.00 kB

  kinetic pressure (ideal gas correction) =      2.30 kB
  total pressure  =      0.74 kB
  Total+kin.    -7.070      -6.472      15.773      15.536       0.211      16.066
  volume of cell :      319.94
      direct lattice vectors                 reciprocal lattice vectors
     5.422132319  5.483682456  0.048321473     0.092102290  0.092102290 -0.092102290
    -0.116402982  5.471444308  5.355041326    -0.092308298  0.090458800  0.092308298
     5.385614841  0.000000000  5.385614841     0.090957903 -0.090771647  0.094721918

  length of vectors
     7.711849787  7.656808739  7.616409550     0.159525846  0.158822034  0.159640452


  POSITION                                       TOTAL-FORCE (eV/Angst) (ML)
 -----------------------------------------------------------------------------------
      3.34682      3.45436      3.33642         0.000365      0.406282      0.381689
      6.11017      3.40284      6.19054        -0.396950     -0.733228     -1.179160
      3.30194      6.19371      6.03192        -0.243331     -0.696438     -1.711526
      5.80141      6.24683      8.76783         1.196333     -0.578255      0.682787
      6.09434      6.18389      3.35656         0.156279     -1.237435      0.090246
      8.61832      6.16332      6.11436        -0.486299      1.122102     -0.335593
      5.87331      8.90417      6.05850        -0.046427      0.378933     -0.579553
      8.70431      9.00342      8.65511        -0.017481     -1.264778     -0.066561
      9.82256     10.33280     10.14788         1.211932     -0.147720     -0.185711
      7.35607     10.23594      7.26326        -0.726421      0.843011      0.683787
     10.11293      7.44932      7.40083        -0.727343      0.619261      0.327693
      7.29562      7.65168      4.68215         0.613174     -0.559595      0.459269
      7.33202      7.64089     10.02994        -0.034536     -0.590283      0.125074
      4.54998      7.50829      7.36123        -0.079368      0.869378      0.355206
      7.27792      4.84096      7.44406         0.323750      0.592881      1.357289
      4.80961      4.70266      4.77051        -0.743678      0.975885     -0.404936
 -----------------------------------------------------------------------------------
    total drift:                                0.000000     -0.000000      0.000000


--------------------------------------------------------------------------------------------------------



  ML FREE ENERGIE OF THE ION-ELECTRON SYSTEM (eV)
  ---------------------------------------------------
  free  energy ML TOTEN  =       -88.08397564 eV

  ML energy  without entropy=      -88.08397564  ML energy(sigma->0) =      -88.08397564

      MLFF:  cpu time      0.0006: real time      0.0062
     LOOP+:  cpu time      0.0008: real time      0.0064
           RANDOM_SEED =         706023541             1026                0
   IONSTEP:  cpu time      0.0002: real time      0.0002

  ENERGY OF THE ELECTRON-ION-THERMOSTAT SYSTEM (eV)
  ---------------------------------------------------
% ion-electron   TOTEN  =       -88.083976  see above
  kinetic energy EKIN   =         0.700522
  kin. lattice  EKIN_LAT=         0.099685  (temperature  325.82 K)
  nose potential ES     =         0.000000
  nose kinetic   EPS    =         0.000000
  ---------------------------------------------------
  total energy   ETOTAL =       -87.283768 eV



--------------------------------------- Ionic step        9  -------------------------------------------



  ML FORCE on cell =-STRESS in cart. coord. units (eV/cell)
  Direction    XX          YY          ZZ          XY          YZ          ZX
  --------------------------------------------------------------------------------------
  Total:     -2.02971    -1.57167     2.40280     2.81857     0.35154     2.77438
  in kB     -10.16347    -7.86989    12.03169    14.11358     1.76031    13.89232
  external pressure =       -2.00 kB  Pullay stress =        0.00 kB

  kinetic pressure (ideal gas correction) =      2.39 kB
  total pressure  =      0.39 kB
  Total+kin.    -8.197      -5.705      15.061      14.360       1.455      15.335
  volume of cell :      319.97
      direct lattice vectors                 reciprocal lattice vectors
     5.429101209  5.477361629  0.044086783     0.092060889  0.092060889 -0.092060889
    -0.116823180  5.465977290  5.349154110    -0.092252630  0.090697270  0.092252630
     5.389020586  0.000000000  5.389020586     0.090817035 -0.090779453  0.094745441

  length of vectors
     7.712235344  7.648791087  7.621226001     0.159454138  0.158893330  0.159578637


  POSITION                                       TOTAL-FORCE (eV/Angst) (ML)
 -----------------------------------------------------------------------------------
      3.34482      3.44892      3.33101         0.075304      0.459961      0.466694
      6.11492      3.39555      6.19197        -0.376657     -0.670107     -1.146729
      3.30203      6.18737      6.02286        -0.211340     -0.683840     -1.693658
      5.80617      6.24752      8.76307         1.160983     -0.667342      0.711177
      6.10166      6.17300      3.35322         0.132011     -1.144460      0.072655
      8.62890      6.15653      6.10923        -0.536518      1.107241     -0.283803
      5.88035      8.89363      6.04385        -0.113022      0.357505     -0.475282
      8.71107      8.99250      8.64709        -0.069097     -1.185122     -0.086883
      9.83176     10.32138     10.14400         1.239363     -0.164347     -0.305572
      7.35871     10.23029      7.24776        -0.666445      0.745621      0.762221
     10.11832      7.43979      7.39628        -0.648292      0.605551      0.384448
      7.30640      7.64243      4.68114         0.601905     -0.597436      0.363799
      7.33638      7.63084     10.02430        -0.011302     -0.532826      0.119192
      4.55005      7.49894      7.35565        -0.049449      0.922989      0.279132
      7.28637      4.83896      7.44506         0.270527      0.563574      1.292493
      4.81791      4.70137      4.77199        -0.797972      0.883038     -0.459883
 -----------------------------------------------------------------------------------
    total drift:                                0.000000     -0.000000     -0.000000


--------------------------------------------------------------------------------------------------------



  ML FREE ENERGIE OF THE ION-ELECTRON SYSTEM (eV)
  ---------------------------------------------------
  free  energy ML TOTEN  =       -88.10725075 eV

  ML energy  without entropy=      -88.10725075  ML energy(sigma->0) =      -88.10725075

      MLFF:  cpu time      0.0006: real time      0.0056
     LOOP+:  cpu time      0.0008: real time      0.0059
           RANDOM_SEED =         706023541             1140                0
   IONSTEP:  cpu time      0.0002: real time      0.0002

  ENERGY OF THE ELECTRON-ION-THERMOSTAT SYSTEM (eV)
  ---------------------------------------------------
% ion-electron   TOTEN  =       -88.107251  see above
  kinetic energy EKIN   =         0.726218
  kin. lattice  EKIN_LAT=         0.102987  (temperature  337.63 K)
  nose potential ES     =         0.000000
  nose kinetic   EPS    =         0.000000
  ---------------------------------------------------
  total energy   ETOTAL =       -87.278046 eV



--------------------------------------- Ionic step       10  -------------------------------------------



  ML FORCE on cell =-STRESS in cart. coord. units (eV/cell)
  Direction    XX          YY          ZZ          XY          YZ          ZX
  --------------------------------------------------------------------------------------
  Total:     -2.29780    -1.44298     2.18801     2.53517     0.64447     2.58617
  in kB     -11.50330    -7.22390    10.95366    12.69160     3.22634    12.94694
  external pressure =       -2.59 kB  Pullay stress =        0.00 kB

  kinetic pressure (ideal gas correction) =      2.47 kB
  total pressure  =     -0.12 kB
  Total+kin.    -9.476      -4.890      14.004      12.911       2.986      14.418
  volume of cell :      320.04
      direct lattice vectors                 reciprocal lattice vectors
     5.436298242  5.471012537  0.037735304     0.091999913  0.091999913 -0.091999913
    -0.115958898  5.459346979  5.343388081    -0.092196499  0.090975592  0.092196499
     5.393208649  0.000000000  5.393208649     0.090701113 -0.090778898  0.094717265

  length of vectors
     7.712764790  7.640007336  7.627148816     0.159348524  0.158987255  0.159495644


  POSITION                                       TOTAL-FORCE (eV/Angst) (ML)
 -----------------------------------------------------------------------------------
      3.34349      3.44326      3.32542         0.143714      0.510195      0.548610
      6.12076      3.38780      6.19311        -0.359258     -0.599005     -1.106282
      3.30333      6.17985      6.01307        -0.178619     -0.666232     -1.663359
      5.81309      6.24704      8.75880         1.114790     -0.748240      0.731340
      6.10971      6.16116      3.34854         0.106007     -1.042538      0.055802
      8.64067      6.14946      6.10278        -0.587066      1.088659     -0.222604
      5.88861      8.88218      6.02753        -0.175712      0.334541     -0.365669
      8.71962      8.98024      8.63793        -0.122101     -1.100766     -0.101273
      9.84363     10.30867     10.13891         1.260104     -0.182288     -0.427648
      7.36274     10.22382      7.23098        -0.602162      0.642944      0.832776
     10.12535      7.42998      7.39087        -0.567399      0.587669      0.434087
      7.31864      7.63234      4.67841         0.588782     -0.632568      0.267309
      7.34266      7.61950     10.01875         0.018151     -0.472656      0.110087
      4.55172      7.48876      7.34981        -0.016159      0.964731      0.200754
      7.29615      4.83670      7.44659         0.221377      0.530543      1.213356
      4.82694      4.69992      4.77271        -0.844447      0.785010     -0.507286
 -----------------------------------------------------------------------------------
    total drift:                                0.000000      0.000000      0.000000


--------------------------------------------------------------------------------------------------------



  ML FREE ENERGIE OF THE ION-ELECTRON SYSTEM (eV)
  ---------------------------------------------------
  free  energy ML TOTEN  =       -88.13138205 eV

  ML energy  without entropy=      -88.13138205  ML energy(sigma->0) =      -88.13138205

      MLFF:  cpu time      0.0007: real time      0.0064
     LOOP+:  cpu time      0.0009: real time      0.0066
           RANDOM_SEED =         706023541             1254                0
   IONSTEP:  cpu time      0.0002: real time      0.0002

  ENERGY OF THE ELECTRON-ION-THERMOSTAT SYSTEM (eV)
  ---------------------------------------------------
% ion-electron   TOTEN  =       -88.131382  see above
  kinetic energy EKIN   =         0.750264
  kin. lattice  EKIN_LAT=         0.118104  (temperature  353.58 K)
  nose potential ES     =         0.000000
  nose kinetic   EPS    =         0.000000
  ---------------------------------------------------
  total energy   ETOTAL =       -87.263014 eV



--------------------------------------- Ionic step       11  -------------------------------------------



  ML FORCE on cell =-STRESS in cart. coord. units (eV/cell)
  Direction    XX          YY          ZZ          XY          YZ          ZX
  --------------------------------------------------------------------------------------
  Total:     -2.52237    -1.26709     1.94448     2.24275     0.95179     2.34466
  in kB     -12.62601    -6.34258     9.73328    11.22635     4.76427    11.73647
  external pressure =       -3.08 kB  Pullay stress =        0.00 kB

  kinetic pressure (ideal gas correction) =      2.55 kB
  total pressure  =     -0.53 kB
  Total+kin.   -10.582      -3.842      12.827      11.408       4.535      13.233
  volume of cell :      320.08
      direct lattice vectors                 reciprocal lattice vectors
     5.442725678  5.463539321  0.030068642     0.091943908  0.091943908 -0.091943908
    -0.113435181  5.451658510  5.338223329    -0.092144282  0.091286136  0.092144282
     5.398188585  0.000000000  5.398188585     0.090608566 -0.090784233  0.094638760

  length of vectors
     7.711966600  7.630863408  7.634191508     0.159251521  0.159104670  0.159399448


  POSITION                                       TOTAL-FORCE (eV/Angst) (ML)
 -----------------------------------------------------------------------------------
      3.34282      3.43719      3.32003         0.205328      0.557653      0.629112
      6.12734      3.37893      6.19433        -0.339966     -0.516446     -1.062199
      3.30581      6.17072      6.00312        -0.138910     -0.636205     -1.619146
      5.82221      6.24517      8.75528         1.061366     -0.821997      0.744725
      6.11793      6.14782      3.34326         0.076142     -0.934581      0.038342
      8.65256      6.14130      6.09584        -0.630066      1.067616     -0.158857
      5.89787      8.86915      6.01080        -0.236117      0.312899     -0.257021
      8.72935      8.96601      8.62878        -0.172508     -1.013533     -0.113474
      9.85738     10.29373     10.13371         1.276268     -0.199050     -0.547711
      7.36769     10.21547      7.21404        -0.537207      0.536697      0.899251
     10.13291      7.41882      7.38532        -0.485560      0.563929      0.481755
      7.33143      7.62028      4.67515         0.574516     -0.661774      0.167957
      7.35115      7.60639     10.01395         0.045963     -0.412369      0.100084
      4.55509      7.47773      7.34448         0.014356      0.987640      0.118940
      7.30731      4.83357      7.44877         0.167464      0.489643      1.127331
      4.83634      4.69799      4.77343        -0.881070      0.679879     -0.549087
 -----------------------------------------------------------------------------------
    total drift:                                0.000000      0.000000     -0.000000


--------------------------------------------------------------------------------------------------------



  ML FREE ENERGIE OF THE ION-ELECTRON SYSTEM (eV)
  ---------------------------------------------------
  free  energy ML TOTEN  =       -88.15538835 eV

  ML energy  without entropy=      -88.15538835  ML energy(sigma->0) =      -88.15538835

      MLFF:  cpu time      0.0006: real time      0.0403
     LOOP+:  cpu time      0.0009: real time      0.0405
           RANDOM_SEED =         706023541             1368                0
   IONSTEP:  cpu time      0.0002: real time      0.0002

  ENERGY OF THE ELECTRON-ION-THERMOSTAT SYSTEM (eV)
  ---------------------------------------------------
% ion-electron   TOTEN  =       -88.155388  see above
  kinetic energy EKIN   =         0.768874
  kin. lattice  EKIN_LAT=         0.121497  (temperature  362.54 K)
  nose potential ES     =         0.000000
  nose kinetic   EPS    =         0.000000
  ---------------------------------------------------
  total energy   ETOTAL =       -87.265017 eV



--------------------------------------- Ionic step       12  -------------------------------------------



  ML FORCE on cell =-STRESS in cart. coord. units (eV/cell)
  Direction    XX          YY          ZZ          XY          YZ          ZX
  --------------------------------------------------------------------------------------
  Total:     -2.74184    -1.12668     1.64007     1.94302     1.26411     2.05915
  in kB     -13.72061    -5.63807     8.20719     9.72318     6.32580    10.30432
  external pressure =       -3.72 kB  Pullay stress =        0.00 kB

  kinetic pressure (ideal gas correction) =      2.59 kB
  total pressure  =     -1.12 kB
  Total+kin.   -11.709      -2.946      11.288       9.779       6.206      11.822
  volume of cell :      320.17
      direct lattice vectors                 reciprocal lattice vectors
     5.448320173  5.456588673  0.021615365     0.091883951  0.091883951 -0.091883951
    -0.109939960  5.444172469  5.334232509    -0.092093505  0.091589140  0.092093505
     5.403640088  0.000000000  5.403640088     0.090543051 -0.090780264  0.094517386

  length of vectors
     7.710967506  7.622672571  7.641901098     0.159147671  0.159219967  0.159287906


  POSITION                                       TOTAL-FORCE (eV/Angst) (ML)
 -----------------------------------------------------------------------------------
      3.34255      3.43151      3.31492         0.256475      0.602666      0.707385
      6.13450      3.37037      6.19573        -0.324163     -0.429066     -1.016744
      3.30862      6.16170      5.99337        -0.091473     -0.595510     -1.560561
      5.83213      6.24319      8.75326         1.003670     -0.884634      0.747452
      6.12595      6.13451      3.33776         0.043804     -0.816697      0.022785
      8.66435      6.13384      6.08913        -0.670385      1.043928     -0.095154
      5.90741      8.85674      5.99464        -0.293860      0.296455     -0.150104
      8.73936      8.95174      8.62022        -0.218615     -0.916466     -0.120579
      9.87186     10.27966     10.12917         1.283796     -0.223411     -0.664164
      7.37281     10.20818      7.19790        -0.471668      0.423713      0.959305
     10.14041      7.40853      7.38002        -0.398215      0.536327      0.526091
      7.34407      7.60859      4.67203         0.560570     -0.688500      0.064767
      7.36066      7.59352     10.01021         0.070912     -0.352041      0.091262
      4.55928      7.46768      7.34021         0.041573      0.992040      0.034227
      7.31878      4.83116      7.45185         0.115525      0.442292      1.037419
      4.84549      4.69675      4.77414        -0.907945      0.568904     -0.583387
 -----------------------------------------------------------------------------------
    total drift:                                0.000000     -0.000000     -0.000000


--------------------------------------------------------------------------------------------------------



  ML FREE ENERGIE OF THE ION-ELECTRON SYSTEM (eV)
  ---------------------------------------------------
  free  energy ML TOTEN  =       -88.17774450 eV

  ML energy  without entropy=      -88.17774450  ML energy(sigma->0) =      -88.17774450

      MLFF:  cpu time      0.0006: real time      0.0070
     LOOP+:  cpu time      0.0009: real time      0.0072
           RANDOM_SEED =         706023541             1482                0
   IONSTEP:  cpu time      0.0002: real time      0.0002

  ENERGY OF THE ELECTRON-ION-THERMOSTAT SYSTEM (eV)
  ---------------------------------------------------
% ion-electron   TOTEN  =       -88.177745  see above
  kinetic energy EKIN   =         0.788565
  kin. lattice  EKIN_LAT=         0.119944  (temperature  369.92 K)
  nose potential ES     =         0.000000
  nose kinetic   EPS    =         0.000000
  ---------------------------------------------------
  total energy   ETOTAL =       -87.269235 eV



--------------------------------------- Ionic step       13  -------------------------------------------



  ML FORCE on cell =-STRESS in cart. coord. units (eV/cell)
  Direction    XX          YY          ZZ          XY          YZ          ZX
  --------------------------------------------------------------------------------------
  Total:     -2.98240    -1.00193     1.32396     1.69893     1.58939     1.72885
  in kB     -14.91856    -5.01187     6.62273     8.49837     7.95044     8.64802
  external pressure =       -4.44 kB  Pullay stress =        0.00 kB

  kinetic pressure (ideal gas correction) =      2.67 kB
  total pressure  =     -1.76 kB
  Total+kin.   -12.808      -2.129       9.647       8.466       7.867      10.185
  volume of cell :      320.29
      direct lattice vectors                 reciprocal lattice vectors
     5.452923121  5.449448374  0.013137407     0.091833823  0.091833823 -0.091833823
    -0.107723934  5.437214515  5.329490581    -0.092040452  0.091877251  0.092040452
     5.409738283  0.000000000  5.409738283     0.090452114 -0.090737366  0.094399712

  length of vectors
     7.709152401  7.614353287  7.650525249     0.159060848  0.159324570  0.159141949


  POSITION                                       TOTAL-FORCE (eV/Angst) (ML)
 -----------------------------------------------------------------------------------
      3.34191      3.42613      3.30996         0.302830      0.645558      0.776265
      6.14139      3.36182      6.19694        -0.308979     -0.334443     -0.967244
      3.31020      6.15274      5.98292        -0.043323     -0.548656     -1.495872
      5.84131      6.24151      8.75121         0.941544     -0.941339      0.742327
      6.13312      6.12080      3.33232         0.007753     -0.688945      0.005010
      8.67541      6.12681      6.08255        -0.706001      1.013980     -0.032664
      5.91523      8.84465      5.97792        -0.347268      0.282459     -0.046458
      8.74804      8.93735      8.61162        -0.266144     -0.814062     -0.127641
      9.88511     10.26584     10.12431         1.284732     -0.246419     -0.773717
      7.37561     10.20139      7.18174        -0.400727      0.305283      1.014043
     10.14700      7.39859      7.37516        -0.307522      0.502865      0.570230
      7.35583      7.59686      4.66885         0.542767     -0.713246     -0.036047
      7.36897      7.58102     10.00661         0.099884     -0.294503      0.082397
      4.56230      7.45833      7.33548         0.065823      0.986032     -0.046915
      7.32981      4.82915      7.45542         0.064599      0.390499      0.944610
      4.85381      4.69575      4.77444        -0.929967      0.454938     -0.608322
 -----------------------------------------------------------------------------------
    total drift:                                0.000000     -0.000000     -0.000000


--------------------------------------------------------------------------------------------------------



  ML FREE ENERGIE OF THE ION-ELECTRON SYSTEM (eV)
  ---------------------------------------------------
  free  energy ML TOTEN  =       -88.19573402 eV

  ML energy  without entropy=      -88.19573402  ML energy(sigma->0) =      -88.19573402

      MLFF:  cpu time      0.0007: real time      0.0069
     LOOP+:  cpu time      0.0010: real time      0.0072
           RANDOM_SEED =         706023541             1596                0
   IONSTEP:  cpu time      0.0002: real time      0.0002

  ENERGY OF THE ELECTRON-ION-THERMOSTAT SYSTEM (eV)
  ---------------------------------------------------
% ion-electron   TOTEN  =       -88.195734  see above
  kinetic energy EKIN   =         0.801308
  kin. lattice  EKIN_LAT=         0.114893  (temperature  373.05 K)
  nose potential ES     =         0.000000
  nose kinetic   EPS    =         0.000000
  ---------------------------------------------------
  total energy   ETOTAL =       -87.279533 eV



--------------------------------------- Ionic step       14  -------------------------------------------



  ML FORCE on cell =-STRESS in cart. coord. units (eV/cell)
  Direction    XX          YY          ZZ          XY          YZ          ZX
  --------------------------------------------------------------------------------------
  Total:     -3.18743    -0.89113     0.98557     1.46706     1.85958     1.35022
  in kB     -15.93771    -4.45579     4.92804     7.33556     9.29824     6.75134
  external pressure =       -5.16 kB  Pullay stress =        0.00 kB

  kinetic pressure (ideal gas correction) =      2.68 kB
  total pressure  =     -2.47 kB
  Total+kin.   -13.758      -1.535       7.870       7.258       9.250       8.313
  volume of cell :      320.42
      direct lattice vectors                 reciprocal lattice vectors
     5.456351322  5.442406357  0.005421989     0.091799246  0.091799246 -0.091799246
    -0.104420256  5.430656089  5.326235833    -0.091997871  0.092141943  0.091997871
     5.416421734  0.000000000  5.416421734     0.090374171 -0.090699631  0.094249562

  length of vectors
     7.706593677  7.607346271  7.659977076     0.159000958  0.159428210  0.158987087


  POSITION                                       TOTAL-FORCE (eV/Angst) (ML)
 -----------------------------------------------------------------------------------
      3.34126      3.42122      3.30602         0.350024      0.681286      0.840250
      6.14851      3.35315      6.19903        -0.291509     -0.231595     -0.914945
      3.31225      6.14411      5.97369         0.010421     -0.495590     -1.421128
      5.85204      6.23961      8.75137         0.872659     -0.986776      0.727701
      6.13965      6.10707      3.32813        -0.026398     -0.557422     -0.009834
      8.68596      6.12036      6.07742        -0.728148      0.974944      0.027237
      5.92303      8.83289      5.96343        -0.391178      0.271555      0.053530
      8.75681      8.92314      8.60530        -0.304839     -0.707635     -0.129070
      9.89953     10.25222     10.12183         1.270100     -0.265753     -0.874583
      7.37841     10.19512      7.16836        -0.333794      0.185045      1.058715
     10.15337      7.38902      7.37244        -0.221290      0.465340      0.608529
      7.36727      7.58499      4.66729         0.519219     -0.732988     -0.136132
      7.37843      7.56894     10.00534         0.125594     -0.239581      0.074177
      4.56631      7.44963      7.33272         0.084807      0.966270     -0.121842
      7.34132      4.82727      7.46080         0.011419      0.334594      0.844394
      4.86187      4.69500      4.77569        -0.947089      0.338307     -0.626998
 -----------------------------------------------------------------------------------
    total drift:                               -0.000000     -0.000000     -0.000000


--------------------------------------------------------------------------------------------------------



  ML FREE ENERGIE OF THE ION-ELECTRON SYSTEM (eV)
  ---------------------------------------------------
  free  energy ML TOTEN  =       -88.21224972 eV

  ML energy  without entropy=      -88.21224972  ML energy(sigma->0) =      -88.21224972

      MLFF:  cpu time      0.0006: real time      0.0404
     LOOP+:  cpu time      0.0009: real time      0.0407
           RANDOM_SEED =         706023541             1710                0
   IONSTEP:  cpu time      0.0002: real time      0.0002

  ENERGY OF THE ELECTRON-ION-THERMOSTAT SYSTEM (eV)
  ---------------------------------------------------
% ion-electron   TOTEN  =       -88.212250  see above
  kinetic energy EKIN   =         0.805900
  kin. lattice  EKIN_LAT=         0.116659  (temperature  375.64 K)
  nose potential ES     =         0.000000
  nose kinetic   EPS    =         0.000000
  ---------------------------------------------------
  total energy   ETOTAL =       -87.289691 eV



--------------------------------------- Ionic step       15  -------------------------------------------



  ML FORCE on cell =-STRESS in cart. coord. units (eV/cell)
  Direction    XX          YY          ZZ          XY          YZ          ZX
  --------------------------------------------------------------------------------------
  Total:     -3.32742    -0.73050     0.68625     1.23493     2.14411     0.93019
  in kB     -16.63509    -3.65204     3.43082     6.17388    10.71927     4.65041
  external pressure =       -5.62 kB  Pullay stress =        0.00 kB

  kinetic pressure (ideal gas correction) =      2.70 kB
  total pressure  =     -2.92 kB
  Total+kin.   -14.330      -0.736       6.308       5.998      10.728       6.248
  volume of cell :      320.47
      direct lattice vectors                 reciprocal lattice vectors
     5.458698599  5.435262369 -0.002011514     0.091777031  0.091777031 -0.091777031
    -0.100401163  5.423146334  5.322745171    -0.091982073  0.092412730  0.091982073
     5.423453811  0.000000000  5.423453811     0.090308088 -0.090662670  0.094076261

  length of vectors
     7.703211762  7.599487661  7.669921934     0.158962480  0.159566651  0.158825733


  POSITION                                       TOTAL-FORCE (eV/Angst) (ML)
 -----------------------------------------------------------------------------------
      3.34060      3.41641      3.30269         0.396930      0.711652      0.896825
      6.15599      3.34421      6.20117        -0.277356     -0.127604     -0.859021
      3.31452      6.13471      5.96412         0.062635     -0.443766     -1.339766
      5.86351      6.23633      8.75193         0.796354     -1.021102      0.705220
      6.14553      6.09284      3.32419        -0.061471     -0.421781     -0.021237
      8.69586      6.11392      6.07289        -0.741877      0.928160      0.081486
      5.93055      8.82016      5.94906        -0.430607      0.264195      0.154961
      8.76543      8.90799      8.59931        -0.341104     -0.601868     -0.127462
      9.91440     10.23710     10.11952         1.246613     -0.278481     -0.967758
      7.38077     10.18788      7.15570        -0.266295      0.063803      1.090913
     10.15925      7.37899      7.37018        -0.132324      0.427984      0.644121
      7.37843      7.57246      4.66603         0.492322     -0.752097     -0.236209
      7.38858      7.55574     10.00444         0.150324     -0.185564      0.062382
      4.57059      7.44016      7.32972         0.107118      0.938013     -0.186456
      7.35320      4.82501      7.46684        -0.042482      0.276533      0.742409
      4.86974      4.69370      4.77691        -0.958781      0.221925     -0.640407
 -----------------------------------------------------------------------------------
    total drift:                               -0.000000     -0.000000      0.000000


--------------------------------------------------------------------------------------------------------



  ML FREE ENERGIE OF THE ION-ELECTRON SYSTEM (eV)
  ---------------------------------------------------
  free  energy ML TOTEN  =       -88.22523355 eV

  ML energy  without entropy=      -88.22523355  ML energy(sigma->0) =      -88.22523355

      MLFF:  cpu time      0.0007: real time      0.0074
     LOOP+:  cpu time      0.0009: real time      0.0076
[...]
  nose kinetic   EPS    =         0.000000
  ---------------------------------------------------
  total energy   ETOTAL =       -87.182777 eV



--------------------------------------- Ionic step       96  -------------------------------------------



  ML FORCE on cell =-STRESS in cart. coord. units (eV/cell)
  Direction    XX          YY          ZZ          XY          YZ          ZX
  --------------------------------------------------------------------------------------
  Total:     -8.01326    -7.63855    -2.42947    -0.51793    -2.50124     2.57476
  in kB     -39.06396   -37.23731   -11.84347    -2.52485   -12.19334    12.55173
  external pressure =      -29.38 kB  Pullay stress =        0.00 kB

  kinetic pressure (ideal gas correction) =      2.17 kB
  total pressure  =    -27.21 kB
  Total+kin.   -36.427     -34.722     -10.488      -3.120     -13.250      13.467
  volume of cell :      328.66
      direct lattice vectors                 reciprocal lattice vectors
     5.603804612  5.556311379  0.117944837     0.090561900  0.090561900 -0.090561900
    -0.099066475  5.523967074  5.424900598    -0.091092164  0.089937155  0.091092164
     5.388128068  0.000000000  5.388128068     0.089731465 -0.092533331  0.095861748

  length of vectors
     7.892346498  7.742969256  7.619963789     0.156857812  0.157112242  0.160635077


  POSITION                                       TOTAL-FORCE (eV/Angst) (ML)
 -----------------------------------------------------------------------------------
      3.23247      3.46638      3.31773         0.907582      0.514124      1.083967
      6.02118      3.50969      6.21978         0.210100      0.217110     -1.205631
      3.19190      6.25482      6.07746         0.097358     -0.169964     -1.389813
      5.85886      6.42692      8.64306         0.578492     -1.105821      0.505288
      6.11166      6.19653      3.38690         0.258152      0.478844     -0.223512
      8.95922      6.13906      6.12404        -0.270993      0.752078     -0.286624
      6.01620      8.93624      5.93446         0.251449     -0.219249      0.326885
      8.66718      9.05044      8.75185        -0.400189      0.100476     -0.179708
     10.12469     10.37648     10.04695         0.146256      0.535954     -0.563021
      7.31739     10.38318      7.27309        -0.108375     -0.141894      1.124281
     10.13520      7.72018      7.46696         0.068328     -1.028634      0.741546
      7.57970      7.54213      4.77928        -0.574453     -0.300468     -0.402384
      7.21405      7.71183     10.10982         0.311956     -0.144944      0.248607
      4.47915      7.71061      7.32126         0.350024      0.346232     -0.109415
      7.41672      4.94802      7.41190        -0.721541      0.424016      0.515017
      4.75174      4.87572      4.77026        -1.104147     -0.257862     -0.185484
 -----------------------------------------------------------------------------------
    total drift:                                0.000000     -0.000000     -0.000000


--------------------------------------------------------------------------------------------------------



  ML FREE ENERGIE OF THE ION-ELECTRON SYSTEM (eV)
  ---------------------------------------------------
  free  energy ML TOTEN  =       -87.97265434 eV

  ML energy  without entropy=      -87.97265434  ML energy(sigma->0) =      -87.97265434

      MLFF:  cpu time      0.0007: real time      0.0062
     LOOP+:  cpu time      0.0009: real time      0.0064
           RANDOM_SEED =         706023541            11058                0
   IONSTEP:  cpu time      0.0002: real time      0.0002

  ENERGY OF THE ELECTRON-ION-THERMOSTAT SYSTEM (eV)
  ---------------------------------------------------
% ion-electron   TOTEN  =       -87.972654  see above
  kinetic energy EKIN   =         0.663891
  kin. lattice  EKIN_LAT=         0.137389  (temperature  326.26 K)
  nose potential ES     =         0.000000
  nose kinetic   EPS    =         0.000000
  ---------------------------------------------------
  total energy   ETOTAL =       -87.171375 eV



--------------------------------------- Ionic step       97  -------------------------------------------



  ML FORCE on cell =-STRESS in cart. coord. units (eV/cell)
  Direction    XX          YY          ZZ          XY          YZ          ZX
  --------------------------------------------------------------------------------------
  Total:     -8.27396    -7.59022    -2.34694    -0.22724    -2.99882     2.57620
  in kB     -40.32675   -36.99423   -11.43882    -1.10757   -14.61606    12.55621
  external pressure =      -29.59 kB  Pullay stress =        0.00 kB

  kinetic pressure (ideal gas correction) =      2.15 kB
  total pressure  =    -27.43 kB
  Total+kin.   -37.721     -34.490     -10.093      -1.675     -15.675      13.497
  volume of cell :      328.72
      direct lattice vectors                 reciprocal lattice vectors
     5.608496623  5.548697805  0.126489225     0.090656035  0.090656035 -0.090656035
    -0.106507985  5.530146809  5.423638824    -0.090960143  0.089866883  0.090960143
     5.388784651  0.000000000  5.388784651     0.089420525 -0.092576074  0.096150075

  length of vectors
     7.890455071  7.746594463  7.620892338     0.157020859  0.156918934  0.160658634


  POSITION                                       TOTAL-FORCE (eV/Angst) (ML)
 -----------------------------------------------------------------------------------
      3.22782      3.46415      3.31883         0.962809      0.512551      1.061461
      6.01774      3.50927      6.21985         0.223629      0.264053     -1.225557
      3.18193      6.25920      6.07708         0.161235     -0.164607     -1.353835
      5.85688      6.42795      8.64554         0.555193     -1.084772      0.436600
      6.11291      6.19272      3.39181         0.256318      0.500789     -0.235357
      8.95874      6.14071      6.13007        -0.181419      0.641689     -0.314698
      6.01214      8.93776      5.93699         0.331987     -0.275199      0.363620
      8.66417      9.04371      8.76164        -0.369707      0.172074     -0.214603
     10.12892     10.37667     10.05453         0.011922      0.553619     -0.581209
      7.31237     10.38311      7.28007        -0.097283     -0.191930      1.150979
     10.13264      7.71523      7.47071         0.091447     -0.998068      0.802521
      7.58377      7.53327      4.79023        -0.670966     -0.221227     -0.454131
      7.20698      7.70972     10.11268         0.288238     -0.091793      0.273191
      4.47588      7.71444      7.32117         0.309012      0.322899     -0.072648
      7.41845      4.94867      7.41331        -0.780261      0.386299      0.516250
      4.74539      4.88159      4.77068        -1.092153     -0.326378     -0.152585
 -----------------------------------------------------------------------------------
    total drift:                                0.000000     -0.000000     -0.000000


--------------------------------------------------------------------------------------------------------



  ML FREE ENERGIE OF THE ION-ELECTRON SYSTEM (eV)
  ---------------------------------------------------
  free  energy ML TOTEN  =       -87.96438350 eV

  ML energy  without entropy=      -87.96438350  ML energy(sigma->0) =      -87.96438350

      MLFF:  cpu time      0.0008: real time      0.0068
     LOOP+:  cpu time      0.0010: real time      0.0070
           RANDOM_SEED =         706023541            11172                0
   IONSTEP:  cpu time      0.0003: real time      0.0003

  ENERGY OF THE ELECTRON-ION-THERMOSTAT SYSTEM (eV)
  ---------------------------------------------------
% ion-electron   TOTEN  =       -87.964384  see above
  kinetic energy EKIN   =         0.663248
  kin. lattice  EKIN_LAT=         0.124605  (temperature  320.79 K)
  nose potential ES     =         0.000000
  nose kinetic   EPS    =         0.000000
  ---------------------------------------------------
  total energy   ETOTAL =       -87.176530 eV



--------------------------------------- Ionic step       98  -------------------------------------------



  ML FORCE on cell =-STRESS in cart. coord. units (eV/cell)
  Direction    XX          YY          ZZ          XY          YZ          ZX
  --------------------------------------------------------------------------------------
  Total:     -8.41699    -7.47414    -2.22341    -0.00230    -3.45924     2.58199
  in kB     -41.03254   -36.43619   -10.83903    -0.01120   -16.86366    12.58712
  external pressure =      -29.44 kB  Pullay stress =        0.00 kB

  kinetic pressure (ideal gas correction) =      2.16 kB
  total pressure  =    -27.27 kB
  Total+kin.   -38.447     -33.881      -9.488      -0.578     -17.932      13.477
  volume of cell :      328.65
      direct lattice vectors                 reciprocal lattice vectors
     5.611786815  5.541104661  0.133573694     0.090749720  0.090749720 -0.090749720
    -0.111932963  5.534791948  5.422858985    -0.090853224  0.089822040  0.090853224
     5.388686447  0.000000000  5.388686447     0.089179887 -0.092641136  0.096394095

  length of vectors
     7.887574663  7.749441945  7.620753457     0.157183125  0.156769307  0.160708599


  POSITION                                       TOTAL-FORCE (eV/Angst) (ML)
 -----------------------------------------------------------------------------------
      3.22348      3.46148      3.31980         1.012545      0.511713      1.038665
      6.01418      3.50843      6.21841         0.232127      0.306908     -1.232212
      3.17308      6.26219      6.07601         0.221675     -0.161615     -1.310494
      5.85571      6.42730      8.64759         0.529825     -1.057576      0.365124
      6.11359      6.18871      3.39522         0.249562      0.517661     -0.238897
      8.95695      6.14222      6.13456        -0.089231      0.525696     -0.336828
      6.00840      8.93782      5.93846         0.408848     -0.328311      0.403926
      8.66091      9.03561      8.77001        -0.339705      0.246340     -0.246800
     10.13310     10.37562     10.06018        -0.124061      0.569247     -0.596985
      7.30729     10.38169      7.28605        -0.081662     -0.241642      1.170451
     10.12901      7.70955      7.47311         0.120728     -0.962640      0.853093
      7.58689      7.52374      4.79970        -0.765020     -0.138641     -0.512150
      7.20069      7.70620     10.11468         0.263880     -0.040424      0.292987
      4.47354      7.71678      7.32050         0.271013      0.296958     -0.036408
      7.41957      4.94887      7.41390        -0.834213      0.345280      0.514617
      4.73886      4.88658      4.77048        -1.076311     -0.388953     -0.128088
 -----------------------------------------------------------------------------------
    total drift:                                0.000000      0.000000     -0.000000


--------------------------------------------------------------------------------------------------------



  ML FREE ENERGIE OF THE ION-ELECTRON SYSTEM (eV)
  ---------------------------------------------------
  free  energy ML TOTEN  =       -87.95812895 eV

  ML energy  without entropy=      -87.95812895  ML energy(sigma->0) =      -87.95812895

      MLFF:  cpu time      0.0008: real time      0.0067
     LOOP+:  cpu time      0.0011: real time      0.0071
           RANDOM_SEED =         706023541            11286                0
   IONSTEP:  cpu time      0.0002: real time      0.0002

  ENERGY OF THE ELECTRON-ION-THERMOSTAT SYSTEM (eV)
  ---------------------------------------------------
% ion-electron   TOTEN  =       -87.958129  see above
  kinetic energy EKIN   =         0.663559
  kin. lattice  EKIN_LAT=         0.107472  (temperature  313.94 K)
  nose potential ES     =         0.000000
  nose kinetic   EPS    =         0.000000
  ---------------------------------------------------
  total energy   ETOTAL =       -87.187098 eV



--------------------------------------- Ionic step       99  -------------------------------------------



  ML FORCE on cell =-STRESS in cart. coord. units (eV/cell)
  Direction    XX          YY          ZZ          XY          YZ          ZX
  --------------------------------------------------------------------------------------
  Total:     -8.53481    -7.32774    -2.11255     0.14778    -3.87036     2.55252
  in kB     -41.61737   -35.73148   -10.30119     0.72061   -18.87264    12.44660
  external pressure =      -29.22 kB  Pullay stress =        0.00 kB

  kinetic pressure (ideal gas correction) =      2.16 kB
  total pressure  =    -27.06 kB
  Total+kin.   -39.156     -33.116      -8.910       0.163     -20.015      13.339
  volume of cell :      328.57
      direct lattice vectors                 reciprocal lattice vectors
     5.615173650  5.533423955  0.140039988     0.090838422  0.090838422 -0.090838422
    -0.115177487  5.537977793  5.422800306    -0.090763726  0.089807601  0.090763726
     5.389494357  0.000000000  5.389494357     0.088964292 -0.092722928  0.096581871

  length of vectors
     7.884704622  7.751724133  7.621896014     0.157336762  0.156657311  0.160749011


  POSITION                                       TOTAL-FORCE (eV/Angst) (ML)
 -----------------------------------------------------------------------------------
      3.22055      3.45861      3.32115         1.050285      0.510319      1.020260
      6.01214      3.50717      6.21729         0.235492      0.346969     -1.229358
      3.16667      6.26370      6.07503         0.278005     -0.156910     -1.253958
      5.85711      6.42512      8.65069         0.501555     -1.021737      0.294327
      6.11528      6.18432      3.39855         0.240283      0.531296     -0.237993
      8.95646      6.14324      6.13935         0.002030      0.408276     -0.349247
      6.00700      8.93681      5.94020         0.480580     -0.380036      0.447992
      8.66012      9.02622      8.77900        -0.311236      0.319209     -0.272352
     10.14004     10.37316     10.06654        -0.256942      0.581285     -0.613429
      7.30473     10.37854      7.29290        -0.062385     -0.286014      1.181018
     10.12721      7.70299      7.47649         0.156075     -0.924818      0.893509
      7.59114      7.51325      4.80936        -0.854741     -0.049676     -0.578360
      7.19746      7.70107     10.11817         0.238724      0.010006      0.304419
      4.47355      7.71820      7.32074         0.238577      0.260535     -0.007148
      7.42212      4.94853      7.41565        -0.882258      0.300460      0.508417
      4.73345      4.89069      4.77060        -1.054043     -0.449166     -0.108097
 -----------------------------------------------------------------------------------
    total drift:                                0.000000     -0.000000      0.000000


--------------------------------------------------------------------------------------------------------



  ML FREE ENERGIE OF THE ION-ELECTRON SYSTEM (eV)
  ---------------------------------------------------
  free  energy ML TOTEN  =       -87.95307550 eV

  ML energy  without entropy=      -87.95307550  ML energy(sigma->0) =      -87.95307550

      MLFF:  cpu time      0.0008: real time      0.0067
     LOOP+:  cpu time      0.0010: real time      0.0069
           RANDOM_SEED =         706023541            11400                0
   IONSTEP:  cpu time      0.0003: real time      0.0003

  ENERGY OF THE ELECTRON-ION-THERMOSTAT SYSTEM (eV)
  ---------------------------------------------------
% ion-electron   TOTEN  =       -87.953076  see above
  kinetic energy EKIN   =         0.666195
  kin. lattice  EKIN_LAT=         0.094254  (temperature  309.63 K)
  nose potential ES     =         0.000000
  nose kinetic   EPS    =         0.000000
  ---------------------------------------------------
  total energy   ETOTAL =       -87.192627 eV



--------------------------------------- Ionic step      100  -------------------------------------------



  ML FORCE on cell =-STRESS in cart. coord. units (eV/cell)
  Direction    XX          YY          ZZ          XY          YZ          ZX
  --------------------------------------------------------------------------------------
  Total:     -8.61630    -7.18994    -1.99220     0.28571    -4.17549     2.46927
  in kB     -42.02768   -35.07034    -9.71733     1.39363   -20.36678    12.04437
  external pressure =      -28.94 kB  Pullay stress =        0.00 kB

  kinetic pressure (ideal gas correction) =      2.18 kB
  total pressure  =    -26.76 kB
  Total+kin.   -39.622     -32.381      -8.270       0.847     -21.525      12.880
  volume of cell :      328.47
      direct lattice vectors                 reciprocal lattice vectors
     5.616598426  5.527590505  0.145700793     0.090921587  0.090921587 -0.090921587
    -0.118349678  5.539972069  5.421622391    -0.090718382  0.089787943  0.090718382
     5.390823723  0.000000000  5.390823723     0.088779283 -0.092758305  0.096721125

  length of vectors
     7.881729721  7.752372961  7.623776021     0.157480809  0.156593501  0.160750864


  POSITION                                       TOTAL-FORCE (eV/Angst) (ML)
 -----------------------------------------------------------------------------------
      3.21753      3.45618      3.32245         1.078879      0.512191      0.998145
      6.01023      3.50597      6.21555         0.228691      0.388647     -1.219620
      3.15986      6.26465      6.07254         0.331592     -0.148984     -1.190125
      5.85845      6.42199      8.65308         0.468883     -0.976411      0.218671
      6.11557      6.18119      3.40093         0.227506      0.543147     -0.234263
      8.95464      6.14584      6.14367         0.091285      0.288141     -0.361360
      6.00436      8.93622      5.94069         0.541530     -0.423286      0.486725
      8.65805      9.01743      8.78676        -0.286663      0.390352     -0.297656
     10.14531     10.37153     10.07120        -0.380852      0.584621     -0.621299
      7.30053     10.37589      7.29816        -0.038205     -0.328991      1.189067
     10.12416      7.69735      7.47932         0.198120     -0.880872      0.930547
      7.59355      7.50409      4.81796        -0.939466      0.040140     -0.647568
      7.19376      7.69566     10.12090         0.217994      0.056126      0.309261
      4.47305      7.71944      7.31985         0.210326      0.215523      0.022280
      7.42435      4.94855      7.41694        -0.924828      0.249396      0.505882
      4.72725      4.89499      4.76998        -1.024792     -0.509740     -0.088688
 -----------------------------------------------------------------------------------
    total drift:                               -0.000000     -0.000000     -0.000000


--------------------------------------------------------------------------------------------------------



  ML FREE ENERGIE OF THE ION-ELECTRON SYSTEM (eV)
  ---------------------------------------------------
  free  energy ML TOTEN  =       -87.94955570 eV

  ML energy  without entropy=      -87.94955570  ML energy(sigma->0) =      -87.94955570

      MLFF:  cpu time      0.0007: real time      0.0066
     LOOP+:  cpu time      0.0010: real time      0.0069
           RANDOM_SEED =         706023541            11514                0
   IONSTEP:  cpu time      0.0017: real time      0.0030

  ENERGY OF THE ELECTRON-ION-THERMOSTAT SYSTEM (eV)
  ---------------------------------------------------
% ion-electron   TOTEN  =       -87.949556  see above
  kinetic energy EKIN   =         0.668072
  kin. lattice  EKIN_LAT=         0.089224  (temperature  308.35 K)
  nose potential ES     =         0.000000
  nose kinetic   EPS    =         0.000000
  ---------------------------------------------------
  total energy   ETOTAL =       -87.192261 eV



